# Selection : patch(inlet)
# Faces  :    12
# Area   :    3.600000e-02
# Time        	areaAverage(p)	areaAverage(U)
0             	2.264000e+01	(0.000000e+00 0.000000e+00 0.000000e+00)
0.0001        	2.264000e+01	(1.511634e-08 3.182673e-06 3.747813e-18)
0.000219277   	2.264000e+01	(-3.011545e-08 1.818050e-06 4.472260e-18)
0.000361027   	2.264000e+01	(-3.548576e-08 3.715034e-06 5.313681e-18)
0.000530132   	2.264000e+01	(-2.876844e-08 5.746003e-06 6.339079e-18)
0.000731618   	2.264000e+01	(-2.598552e-08 8.013344e-06 7.552945e-18)
0.000969269   	2.264000e+01	(-2.424260e-08 1.065233e-05 8.908611e-18)
0.00125148    	2.264000e+01	(-2.279660e-08 1.376838e-05 1.057899e-17)
0.00158796    	2.264000e+01	(-2.145494e-08 1.747472e-05 1.261341e-17)
0.00198853    	2.264000e+01	(-2.014747e-08 2.188220e-05 1.501597e-17)
0.0024598     	2.264000e+01	(-1.885106e-08 2.706401e-05 1.766585e-17)
0.00299838    	2.264000e+01	(-1.757487e-08 3.298171e-05 2.018955e-17)
0.00363489    	2.264000e+01	(-1.630442e-08 3.997893e-05 2.386037e-17)
0.00434213    	2.264000e+01	(-1.498169e-08 4.774656e-05 2.651153e-17)
0.00515039    	2.264000e+01	(-1.355047e-08 5.662644e-05 3.029889e-17)
0.00612032    	2.264000e+01	(-1.195886e-08 6.729289e-05 3.635866e-17)
0.00709024    	2.264000e+01	(-1.034299e-08 7.792549e-05 3.635869e-17)
0.00806016    	2.264000e+01	(-8.715745e-09 8.854590e-05 3.635870e-17)
0.00903008    	2.264000e+01	(-7.088873e-09 9.916208e-05 3.635871e-17)
0.01          	2.264000e+01	(-5.474628e-09 1.097770e-04 3.635871e-17)
0.0111111     	2.264000e+01	(-3.749141e-09 1.219717e-04 4.165138e-17)
0.012381      	2.264000e+01	(-1.855497e-09 1.359204e-04 4.760157e-17)
0.0139048     	2.264000e+01	(3.116613e-10 1.526777e-04 5.712186e-17)
0.0154286     	2.264000e+01	(2.546325e-09 1.693823e-04 5.712189e-17)
0.0169524     	2.264000e+01	(4.793632e-09 1.860678e-04 5.712191e-17)
0.0184762     	2.264000e+01	(7.030733e-09 2.027466e-04 5.712192e-17)
0.02          	2.264000e+01	(9.254026e-09 2.194232e-04 5.712193e-17)
0.0216667     	2.264000e+01	(1.159116e-08 2.376981e-04 6.247709e-17)
0.0233333     	2.264000e+01	(1.394854e-08 2.559499e-04 6.247711e-17)
0.025         	2.264000e+01	(1.630569e-08 2.741935e-04 6.247712e-17)
0.0266667     	2.264000e+01	(1.865716e-08 2.924342e-04 6.247713e-17)
0.0283333     	2.264000e+01	(2.100036e-08 3.106740e-04 6.247713e-17)
0.03          	2.264000e+01	(2.333659e-08 3.289136e-04 6.247714e-17)
0.032         	2.264000e+01	(2.597420e-08 3.508838e-04 7.497250e-17)
0.034         	2.264000e+01	(2.868123e-08 3.728004e-04 7.497253e-17)
0.036         	2.264000e+01	(3.141905e-08 3.946977e-04 7.497255e-17)
0.038         	2.264000e+01	(3.416967e-08 4.165879e-04 7.497256e-17)
0.04          	2.264000e+01	(3.691110e-08 4.384758e-04 7.497257e-17)
0.042         	2.264000e+01	(3.964128e-08 4.603629e-04 7.497257e-17)
0.044         	2.264000e+01	(4.235594e-08 4.822498e-04 7.497258e-17)
0.046         	2.264000e+01	(4.505395e-08 5.041367e-04 7.497258e-17)
0.048         	2.264000e+01	(4.773180e-08 5.260237e-04 7.497259e-17)
0.05          	2.264000e+01	(5.038651e-08 5.479106e-04 7.497259e-17)
0.052         	2.264000e+01	(5.301451e-08 5.697976e-04 7.497260e-17)
0.054         	2.264000e+01	(5.561313e-08 5.916845e-04 7.497260e-17)
0.056         	2.264000e+01	(5.817641e-08 6.135714e-04 7.497261e-17)
0.058         	2.264000e+01	(6.070480e-08 6.354582e-04 7.497261e-17)
0.06          	2.264000e+01	(6.319898e-08 6.573450e-04 7.497262e-17)
0.062         	2.264000e+01	(6.565975e-08 6.792318e-04 7.497262e-17)
0.064         	2.264000e+01	(6.808807e-08 7.011184e-04 7.497262e-17)
0.066         	2.264000e+01	(7.048496e-08 7.230049e-04 7.497263e-17)
0.068         	2.264000e+01	(7.285151e-08 7.448913e-04 7.497263e-17)
0.07          	2.264000e+01	(7.518893e-08 7.667776e-04 7.497263e-17)
0.072         	2.264000e+01	(7.749849e-08 7.886638e-04 7.497264e-17)
0.074         	2.264000e+01	(7.978151e-08 8.105499e-04 7.497264e-17)
0.076         	2.264000e+01	(8.203934e-08 8.324358e-04 7.497264e-17)
0.078         	2.264000e+01	(8.427336e-08 8.543216e-04 7.497264e-17)
0.08          	2.264000e+01	(8.648493e-08 8.762073e-04 7.497265e-17)
0.082         	2.264000e+01	(8.867539e-08 8.980928e-04 7.497265e-17)
0.084         	2.264000e+01	(9.084694e-08 9.199782e-04 7.497265e-17)
0.086         	2.264000e+01	(9.299828e-08 9.418634e-04 7.497265e-17)
0.088         	2.264000e+01	(9.513417e-08 9.637485e-04 7.497266e-17)
0.09          	2.264000e+01	(9.725199e-08 9.856335e-04 7.497266e-17)
0.092         	2.264000e+01	(9.935670e-08 1.007518e-03 7.497266e-17)
0.094         	2.264000e+01	(1.014462e-07 1.029403e-03 7.497266e-17)
0.096         	2.264000e+01	(1.035229e-07 1.051288e-03 7.497266e-17)
0.098         	2.264000e+01	(1.055877e-07 1.073172e-03 7.497266e-17)
0.1           	2.264000e+01	(1.076412e-07 1.095056e-03 7.497267e-17)
0.102         	2.264000e+01	(1.096841e-07 1.116940e-03 7.497267e-17)
0.104         	2.264000e+01	(1.117172e-07 1.138825e-03 7.497267e-17)
0.106         	2.264000e+01	(1.137410e-07 1.160708e-03 7.497267e-17)
0.108         	2.264000e+01	(1.157562e-07 1.182592e-03 7.497267e-17)
0.11          	2.264000e+01	(1.177634e-07 1.204476e-03 7.497267e-17)
0.112         	2.264000e+01	(1.197629e-07 1.226359e-03 7.497268e-17)
0.114         	2.264000e+01	(1.217554e-07 1.248243e-03 7.497268e-17)
0.116         	2.264000e+01	(1.237411e-07 1.270126e-03 7.497268e-17)
0.118         	2.264000e+01	(1.257205e-07 1.292009e-03 7.497268e-17)
0.12          	2.264000e+01	(1.276940e-07 1.313892e-03 7.497268e-17)
0.122         	2.264000e+01	(1.296617e-07 1.335775e-03 7.497268e-17)
0.124         	2.264000e+01	(1.316242e-07 1.357658e-03 7.497268e-17)
0.126         	2.264000e+01	(1.335819e-07 1.379541e-03 7.497268e-17)
0.128         	2.264000e+01	(1.355358e-07 1.401423e-03 7.497268e-17)
0.13          	2.264000e+01	(1.374826e-07 1.423306e-03 7.497269e-17)
0.132         	2.264000e+01	(1.394198e-07 1.445188e-03 7.497269e-17)
0.134         	2.264000e+01	(1.413505e-07 1.467070e-03 7.497269e-17)
0.136         	2.264000e+01	(1.432763e-07 1.488952e-03 7.497269e-17)
0.138         	2.264000e+01	(1.451972e-07 1.510834e-03 7.497269e-17)
0.14          	2.264000e+01	(1.471132e-07 1.532716e-03 7.497269e-17)
0.142         	2.264000e+01	(1.490243e-07 1.554598e-03 7.497269e-17)
0.144         	2.264000e+01	(1.509304e-07 1.576480e-03 7.497269e-17)
0.146         	2.264000e+01	(1.528315e-07 1.598361e-03 7.497269e-17)
0.148         	2.264000e+01	(1.547275e-07 1.620243e-03 7.497269e-17)
0.15          	2.264000e+01	(1.566184e-07 1.642124e-03 7.497269e-17)
0.152         	2.264000e+01	(1.585041e-07 1.664006e-03 7.497270e-17)
0.154         	2.264000e+01	(1.603845e-07 1.685887e-03 7.497270e-17)
0.156         	2.264000e+01	(1.622596e-07 1.707768e-03 7.497270e-17)
0.158         	2.264000e+01	(1.641293e-07 1.729649e-03 7.497270e-17)
0.16          	2.264000e+01	(1.659935e-07 1.751530e-03 7.497270e-17)
0.162         	2.264000e+01	(1.678522e-07 1.773411e-03 7.497270e-17)
0.164         	2.264000e+01	(1.697053e-07 1.795292e-03 7.497270e-17)
0.166         	2.264000e+01	(1.715526e-07 1.817172e-03 7.497270e-17)
0.168         	2.264000e+01	(1.733942e-07 1.839053e-03 7.497270e-17)
0.17          	2.264000e+01	(1.752300e-07 1.860933e-03 7.497270e-17)
0.172         	2.264000e+01	(1.770598e-07 1.882814e-03 7.497270e-17)
0.174         	2.264000e+01	(1.788836e-07 1.904694e-03 7.497270e-17)
0.176         	2.264000e+01	(1.807015e-07 1.926574e-03 7.497270e-17)
0.178         	2.264000e+01	(1.825132e-07 1.948455e-03 7.497270e-17)
0.18          	2.264000e+01	(1.843188e-07 1.970335e-03 7.497271e-17)
0.182         	2.264000e+01	(1.861182e-07 1.992215e-03 7.497271e-17)
0.184         	2.264000e+01	(1.879115e-07 2.014095e-03 7.497271e-17)
0.186         	2.264000e+01	(1.896990e-07 2.035975e-03 7.497271e-17)
0.188         	2.264000e+01	(1.914790e-07 2.057855e-03 7.497271e-17)
0.19          	2.264000e+01	(1.932519e-07 2.079734e-03 7.497271e-17)
0.192         	2.264000e+01	(1.950183e-07 2.101614e-03 7.497271e-17)
0.194         	2.264000e+01	(1.967781e-07 2.123494e-03 7.497271e-17)
0.196         	2.264000e+01	(1.985314e-07 2.145373e-03 7.497271e-17)
0.198         	2.264000e+01	(2.002780e-07 2.167253e-03 7.497271e-17)
0.2           	2.264000e+01	(2.020179e-07 2.189132e-03 7.497271e-17)
0.202         	2.264000e+01	(2.037511e-07 2.211011e-03 7.497271e-17)
0.204         	2.264000e+01	(2.054775e-07 2.232891e-03 7.497271e-17)
0.206         	2.264000e+01	(2.071972e-07 2.254770e-03 7.497271e-17)
0.208         	2.264000e+01	(2.089101e-07 2.276649e-03 7.497271e-17)
0.21          	2.264000e+01	(2.106162e-07 2.298528e-03 7.497271e-17)
0.212         	2.264000e+01	(2.123154e-07 2.320407e-03 7.497271e-17)
0.214         	2.264000e+01	(2.140077e-07 2.342286e-03 7.497271e-17)
0.216         	2.264000e+01	(2.156931e-07 2.364165e-03 7.497271e-17)
0.218         	2.264000e+01	(2.173716e-07 2.386044e-03 7.497271e-17)
0.22          	2.264000e+01	(2.190432e-07 2.407923e-03 7.497271e-17)
0.222         	2.264000e+01	(2.207079e-07 2.429801e-03 7.497272e-17)
0.224         	2.264000e+01	(2.223657e-07 2.451680e-03 7.497272e-17)
0.226         	2.264000e+01	(2.240166e-07 2.473559e-03 7.497272e-17)
0.228         	2.264000e+01	(2.256606e-07 2.495437e-03 7.497272e-17)
0.23          	2.264000e+01	(2.272978e-07 2.517316e-03 7.497272e-17)
0.232         	2.264000e+01	(2.289279e-07 2.539194e-03 7.497272e-17)
0.234         	2.264000e+01	(2.305511e-07 2.561073e-03 7.497272e-17)
0.236         	2.264000e+01	(2.321674e-07 2.582951e-03 7.497272e-17)
0.238         	2.264000e+01	(2.337769e-07 2.604829e-03 7.497272e-17)
0.24          	2.264000e+01	(2.353796e-07 2.626708e-03 7.497272e-17)
0.242         	2.264000e+01	(2.369755e-07 2.648586e-03 7.497272e-17)
0.244         	2.264000e+01	(2.385646e-07 2.670464e-03 7.497272e-17)
0.246         	2.264000e+01	(2.401470e-07 2.692342e-03 7.497272e-17)
0.248         	2.264000e+01	(2.417226e-07 2.714220e-03 7.497272e-17)
0.25          	2.264000e+01	(2.432915e-07 2.736098e-03 7.497272e-17)
0.252         	2.264000e+01	(2.448537e-07 2.757976e-03 7.497272e-17)
0.254         	2.264000e+01	(2.464093e-07 2.779854e-03 7.497272e-17)
0.256         	2.264000e+01	(2.479582e-07 2.801732e-03 7.497272e-17)
0.258         	2.264000e+01	(2.495005e-07 2.823610e-03 7.497272e-17)
0.26          	2.264000e+01	(2.510363e-07 2.845487e-03 7.497272e-17)
0.262         	2.264000e+01	(2.525656e-07 2.867365e-03 7.497272e-17)
0.264         	2.264000e+01	(2.540883e-07 2.889243e-03 7.497272e-17)
0.266         	2.264000e+01	(2.556046e-07 2.911121e-03 7.497272e-17)
0.268         	2.264000e+01	(2.571145e-07 2.932998e-03 7.497272e-17)
0.27          	2.264000e+01	(2.586180e-07 2.954876e-03 7.497272e-17)
0.272         	2.264000e+01	(2.601152e-07 2.976753e-03 7.497272e-17)
0.274         	2.264000e+01	(2.616060e-07 2.998631e-03 7.497272e-17)
0.276         	2.264000e+01	(2.630906e-07 3.020508e-03 7.497272e-17)
0.278         	2.264000e+01	(2.645691e-07 3.042385e-03 7.497272e-17)
0.28          	2.264000e+01	(2.660413e-07 3.064263e-03 7.497273e-17)
0.282         	2.264000e+01	(2.675074e-07 3.086140e-03 7.497273e-17)
0.284         	2.264000e+01	(2.689675e-07 3.108017e-03 7.497273e-17)
0.286         	2.264000e+01	(2.704215e-07 3.129895e-03 7.497273e-17)
0.288         	2.264000e+01	(2.718696e-07 3.151772e-03 7.497273e-17)
0.29          	2.264000e+01	(2.733116e-07 3.173649e-03 7.497273e-17)
0.292         	2.264000e+01	(2.747477e-07 3.195526e-03 7.497273e-17)
0.294         	2.264000e+01	(2.761779e-07 3.217403e-03 7.497273e-17)
0.296         	2.264000e+01	(2.776021e-07 3.239280e-03 7.497273e-17)
0.298         	2.264000e+01	(2.790203e-07 3.261157e-03 7.497273e-17)
0.3           	2.264000e+01	(2.804327e-07 3.283034e-03 7.497273e-17)
