/*--------------------------------*- C++ -*----------------------------------*\
  =========                 |
  \\      /  F ield         | OpenFOAM: The Open Source CFD Toolbox
   \\    /   O peration     | Website:  https://openfoam.org
    \\  /    A nd           | Version:  12
     \\/     M anipulation  |
\*---------------------------------------------------------------------------*/
FoamFile
{
    format      ascii;
    class       surfaceScalarField;
    location    "0.14";
    object      phi;
}
// * * * * * * * * * * * * * * * * * * * * * * * * * * * * * * * * * * * * * //

dimensions      [0 3 -1 0 0 0 0];

internalField   nonuniform List<scalar> 
6438
(
-2.28587e-08
2.84072e-06
-2.81786e-06
-2.50082e-08
3.29999e-06
-3.27498e-06
-3.09432e-06
-5.23193e-07
3.61752e-06
2.93618e-06
-3.2216e-06
2.85415e-07
4.51341e-06
-3.52528e-06
-9.88129e-07
1.02699e-06
3.48642e-06
-3.51487e-06
4.20548e-07
-3.04968e-06
3.02467e-06
3.29312e-06
-3.93269e-06
6.39564e-07
3.06326e-06
-3.59096e-06
5.27696e-07
-2.96283e-06
3.60094e-06
-6.38111e-07
7.11595e-07
-3.24845e-06
2.53685e-06
-3.66503e-06
7.02204e-07
2.81529e-06
1.29278e-06
-4.10807e-06
2.64411e-06
-2.66697e-06
-1.49364e-07
3.09896e-06
-2.94959e-06
-3.90441e-06
3.78579e-06
1.1862e-07
-2.95654e-06
3.5885e-06
-6.31956e-07
-3.66177e-06
7.05227e-07
1.16273e-06
2.45979e-06
-3.62252e-06
-8.47575e-07
-5.54665e-07
1.40224e-06
-1.80848e-07
3.24638e-06
-3.06553e-06
-3.00974e-06
-4.87694e-07
3.49744e-06
-3.68301e-06
1.61662e-06
2.06639e-06
-3.19853e-06
3.01769e-06
-2.84064e-06
3.4532e-06
-6.12559e-07
-3.46992e-06
4.60178e-07
3.29141e-06
-2.57981e-06
-2.98927e-06
-5.57978e-07
3.54725e-06
-3.61383e-06
7.73186e-07
2.7722e-06
-3.47973e-06
7.07529e-07
1.56147e-08
-3.38988e-06
3.37427e-06
3.31693e-06
-3.33529e-06
1.83587e-08
-3.28611e-06
5.53365e-07
2.73275e-06
-4.43931e-06
7.17722e-07
3.72158e-06
3.1209e-06
-3.10528e-06
3.14814e-06
-2.11958e-07
2.04291e-06
2.86037e-06
-4.90328e-06
-1.00752e-06
3.82281e-06
-2.93097e-06
3.21957e-06
-2.88595e-07
-3.39623e-06
3.36468e-06
3.1547e-08
-1.41222e-06
2.57495e-06
3.03678e-06
2.64793e-08
-3.65007e-06
3.57607e-06
7.40023e-08
3.27254e-06
-5.00345e-07
-2.45249e-06
2.30312e-06
-4.242e-06
7.1672e-07
3.22387e-06
3.10888e-07
-3.53476e-06
-2.50771e-06
-7.78399e-07
-4.59145e-07
-3.01659e-06
3.42274e-06
-4.06156e-07
-2.2504e-06
3.24545e-06
-9.9505e-07
3.25576e-06
-3.25576e-06
1.02214e-06
2.46925e-06
3.24975e-07
-2.79422e-06
1.44917e-06
7.02859e-07
-2.15203e-06
2.75811e-06
5.76483e-07
-3.33459e-06
2.66208e-06
-1.04546e-06
-1.54379e-06
-2.69821e-06
-3.20317e-08
2.87003e-06
-2.838e-06
-3.54048e-06
3.54048e-06
-3.6664e-06
3.70309e-06
-3.66825e-08
1.47349e-07
2.72791e-06
-2.87526e-06
1.03333e-08
-3.34148e-06
3.33115e-06
3.10048e-06
-3.09015e-06
-3.38051e-06
3.91236e-07
-3.38956e-06
-2.60509e-07
-2.91497e-06
3.20254e-06
-2.87563e-07
3.22308e-07
2.79083e-06
-3.11314e-06
-3.42724e-06
3.29631e-06
1.30923e-07
3.34139e-06
-3.34139e-06
3.10658e-06
1.86539e-07
-2.0406e-06
-1.55036e-06
2.90932e-06
6.13682e-07
-3.523e-06
-2.85503e-06
-5.41199e-07
2.53558e-06
1.96046e-06
-4.49604e-06
-3.92841e-06
2.51619e-06
-2.50925e-06
-1.41916e-06
3.45644e-06
-5.47125e-07
2.06155e-06
-6.12377e-07
2.8019e-06
3.18515e-07
-3.12041e-06
-3.45423e-06
-2.12177e-07
-4.90335e-07
-8.40364e-07
-2.70012e-06
3.74403e-06
-3.74403e-06
-2.47699e-06
-9.50241e-07
-2.248e-07
-4.21451e-06
-3.23042e-06
3.21765e-06
1.27666e-08
1.16312e-07
-3.27342e-06
3.15711e-06
-3.59978e-07
3.16187e-06
3.23448e-06
8.24507e-08
-3.3786e-06
-5.25814e-07
-3.41052e-06
3.49657e-06
-8.60506e-08
3.56384e-06
-1.99412e-06
-1.56972e-06
3.19525e-06
-3.07894e-06
6.58935e-08
3.58609e-06
-1.82502e-06
-1.76107e-06
2.03897e-06
1.52488e-06
3.2888e-06
-3.2888e-06
-2.52294e-06
3.61837e-06
-1.09543e-06
-3.16972e-06
1.53135e-07
-4.34033e-07
-2.56661e-06
3.00064e-06
-2.97145e-06
1.16414e-07
-3.18341e-06
6.60468e-07
2.74577e-06
6.03327e-07
-3.3491e-06
-1.95184e-07
2.94096e-06
-2.86849e-06
3.31394e-06
-4.45456e-07
-3.04694e-06
1.15974e-07
2.10631e-06
1.47978e-06
3.17583e-06
-6.38978e-07
1.36575e-07
3.11919e-06
-2.74048e-06
-2.30966e-07
2.86434e-06
6.09953e-07
-3.47429e-06
-1.58418e-06
-1.36638e-06
2.95057e-06
2.0857e-06
-2.64935e-07
-1.82077e-06
-3.38988e-06
6.88863e-07
3.39544e-06
-4.0843e-06
-1.57528e-06
7.27703e-07
3.38917e-06
6.40289e-08
3.67824e-06
-1.9028e-06
-1.77545e-06
1.23187e-06
2.44637e-06
3.42792e-06
-5.63579e-07
4.18508e-06
-2.14217e-06
-3.1009e-06
9.81682e-09
3.09109e-06
-4.43556e-06
4.51137e-07
3.98442e-06
-5.12774e-08
-3.07971e-06
3.13099e-06
3.38646e-06
1.8961e-07
-2.61304e-06
2.581e-06
-3.11713e-06
3.17957e-06
-6.24334e-08
3.15653e-06
-3.20781e-06
3.25772e-06
-3.25772e-06
3.20665e-06
9.33385e-08
3.21293e-06
-7.43683e-07
3.16915e-06
-3.0218e-06
-2.79218e-06
2.35815e-06
2.89884e-08
3.07748e-06
-3.10647e-06
3.62375e-06
-2.53837e-06
-1.08538e-06
-3.34148e-06
-4.84961e-08
3.77417e-08
-3.08742e-06
-3.09297e-06
1.77996e-07
3.53e-08
3.0856e-06
2.98613e-06
-2.66382e-06
-3.07943e-06
2.1094e-07
3.12366e-06
-8.68798e-08
-1.11914e-07
2.719e-06
-2.60708e-06
2.14168e-06
1.48207e-06
-3.20142e-06
6.88564e-07
2.51286e-06
3.26441e-06
-1.89639e-08
-4.31689e-06
3.91309e-07
3.92558e-06
-4.39768e-08
-3.06356e-06
3.10754e-06
2.03614e-06
4.95647e-08
1.95363e-07
3.06905e-06
3.03672e-06
2.5469e-07
3.1383e-06
-3.18228e-06
-3.27023e-06
-1.08366e-07
3.33662e-06
-3.58666e-06
2.50039e-07
-2.98202e-06
-1.18888e-07
-3.62983e-06
1.57347e-06
2.05636e-06
-3.90101e-10
3.13746e-06
1.08922e-07
-2.95396e-06
3.43536e-06
-4.81398e-07
-3.25282e-06
2.80356e-06
4.49264e-07
-4.40296e-07
1.13775e-06
-6.97456e-07
-1.02075e-06
-2.59308e-06
-3.27342e-06
-2.58614e-08
3.12634e-06
9.60361e-07
2.65801e-06
-5.26845e-08
-3.18333e-06
-1.52035e-08
-6.77712e-08
-3.47927e-06
2.93939e-06
5.39885e-07
-2.03863e-07
2.59496e-06
5.11619e-07
5.08704e-06
-2.22668e-06
-1.0758e-06
-2.58596e-06
3.19027e-06
4.42027e-08
-2.73751e-06
1.15332e-06
-1.23098e-06
-1.94092e-06
3.1719e-06
-1.09816e-06
-2.56687e-06
-1.78458e-06
4.32016e-06
-3.2918e-06
1.08474e-07
-3.10717e-06
3.11898e-06
-1.18064e-08
-2.5649e-06
2.45298e-06
-3.75627e-08
-3.04513e-06
3.08269e-06
-3.34898e-06
5.71773e-08
2.79187e-06
-3.32204e-06
5.30175e-07
3.11096e-06
-3.14852e-06
2.77969e-06
-1.05188e-06
-1.72781e-06
-4.2057e-06
1.49043e-06
2.71528e-06
2.84973e-06
2.73937e-07
2.35329e-06
1.4325e-06
6.87085e-07
3.05694e-06
-8.17499e-07
-2.92653e-06
-3.39069e-06
3.35998e-06
3.07185e-08
-3.38121e-06
-9.48229e-09
-3.36448e-06
-1.67325e-08
1.09948e-08
8.75982e-07
-4.89627e-06
4.02029e-06
-3.63386e-06
4.32273e-06
2.86958e-06
-2.8406e-06
3.06722e-06
1.28037e-07
2.50039e-07
2.52965e-06
-3.07971e-06
-2.79219e-06
2.77946e-06
3.45618e-07
-3.12508e-06
-1.57043e-08
-6.64069e-07
4.88654e-06
-4.22247e-06
4.6348e-06
-3.34202e-06
-1.40724e-06
2.1101e-06
-8.92662e-07
-2.73717e-06
-2.43026e-06
-1.77544e-06
-3.07858e-06
-1.91649e-07
-3.10085e-06
3.10032e-06
5.31229e-10
-4.88697e-07
2.90958e-06
-2.42088e-06
-3.3309e-06
3.35428e-06
-2.33836e-08
-3.29596e-06
-3.49385e-08
-4.2341e-06
2.65121e-07
3.96898e-06
-2.95727e-06
-1.9184e-07
3.14912e-06
3.3192e-06
3.50795e-08
-5.89679e-07
-3.62607e-06
1.32371e-06
2.30236e-06
2.03262e-08
-1.91888e-06
-1.70719e-06
-4.52792e-08
-3.40306e-08
-3.02726e-06
3.06129e-06
-3.11235e-06
1.55077e-07
2.81287e-06
3.77403e-07
3.24163e-06
-3.10505e-06
3.08096e-06
-3.11499e-06
3.0685e-06
8.80308e-08
1.50933e-06
3.12547e-06
3.19526e-06
-6.00295e-07
-2.51652e-07
-4.18391e-06
-1.81943e-07
2.52876e-06
-2.34681e-06
-3.28021e-06
-1.57447e-08
-3.27968e-06
-5.37062e-10
3.30553e-06
-3.2818e-06
-2.37277e-08
3.27015e-06
3.53784e-08
-3.06356e-06
7.57162e-07
-1.03945e-06
2.82289e-07
-3.70451e-06
2.16962e-06
1.53489e-06
1.65646e-06
-3.32201e-06
1.66555e-06
-2.90015e-06
-2.69574e-07
-3.09043e-06
3.07507e-06
1.53617e-08
-3.21379e-06
3.09973e-06
1.14061e-07
-2.56755e-07
3.28898e-06
-3.03223e-06
-3.19073e-06
7.83734e-08
-3.54326e-06
4.41924e-06
-3.27305e-07
-2.87412e-06
-3.33119e-06
3.07443e-06
-2.60978e-06
-2.39656e-07
2.84943e-06
-2.44226e-06
3.2493e-06
2.08534e-08
-2.22255e-06
-5.95482e-07
6.60173e-07
-6.46911e-08
-3.0381e-08
1.19809e-07
-4.2272e-06
4.10739e-06
-2.36713e-06
-1.14774e-06
-3.29376e-06
3.22735e-06
6.64085e-08
-3.2434e-06
-5.0358e-08
-1.16528e-06
7.24985e-07
3.0628e-06
7.55022e-08
3.26822e-06
-5.40315e-07
3.24087e-06
-3.23759e-06
-3.27764e-09
-8.58691e-09
-3.00385e-06
3.01244e-06
3.39401e-06
-2.43365e-06
-4.09294e-08
3.35996e-06
1.90026e-06
-5.26022e-06
3.32883e-06
-3.32883e-06
5.17003e-07
3.02348e-06
-1.175e-06
-2.08076e-06
-2.65488e-06
3.20049e-06
-5.45614e-07
-3.51904e-07
-2.86189e-06
3.06551e-06
-3.07409e-06
-2.9357e-06
4.87793e-08
2.88692e-06
5.6342e-07
-2.97583e-06
2.41241e-06
-3.08135e-06
3.04905e-06
3.22958e-08
1.96941e-06
1.42461e-06
-9.6265e-08
-4.99217e-07
-1.8538e-06
-1.8507e-06
-7.12626e-07
-3.29043e-06
3.36469e-07
-3.04513e-06
2.75961e-06
5.77013e-07
-2.55967e-06
-2.87765e-06
2.6787e-07
-2.93605e-06
1.70507e-06
3.33142e-06
-2.70804e-06
-6.23374e-07
5.68473e-07
2.67316e-06
-2.3541e-06
-1.11582e-06
-3.25793e-06
3.25793e-06
3.26052e-06
-3.13599e-06
-1.24538e-07
1.87247e-07
-3.0874e-06
-2.60881e-06
2.94971e-06
-3.40897e-07
-1.03248e-06
4.77816e-07
3.03681e-06
-3.0517e-06
1.48967e-08
3.19308e-06
3.42713e-08
3.22434e-06
3.61862e-08
4.86929e-06
-3.10713e-06
-8.35905e-08
-2.72668e-06
2.23798e-06
3.05822e-06
5.27408e-08
3.21514e-06
-3.1976e-06
-1.75408e-08
-2.82659e-08
-4.45096e-08
3.3652e-07
-2.75746e-06
2.42094e-06
-9.59295e-08
-4.22096e-06
1.00967e-06
2.25308e-07
-2.83412e-06
-3.07409e-06
3.02709e-06
4.70023e-08
3.06654e-06
-2.74675e-07
-1.43075e-06
-1.90454e-06
-4.29793e-06
3.18285e-07
-1.72553e-06
-5.10968e-07
1.40073e-08
3.15845e-06
-2.81283e-06
-3.02726e-06
-3.03191e-06
7.91259e-08
2.95279e-06
4.27951e-06
6.07027e-07
2.46827e-06
1.23481e-06
2.98564e-06
-1.32918e-06
3.11642e-06
-1.77027e-07
7.15712e-06
-5.25686e-06
-4.89627e-06
-1.5697e-06
-1.68312e-06
-3.99574e-08
3.32436e-06
-3.11481e-06
-2.0955e-07
3.15247e-06
7.18716e-08
3.64413e-07
-3.01929e-06
-2.24049e-06
2.57701e-06
3.0542e-06
2.67596e-08
2.39597e-06
1.06047e-06
3.20477e-06
1.19591e-07
3.20256e-06
-3.15671e-06
-4.58443e-08
-1.44416e-06
-2.03557e-06
-1.44613e-07
2.94817e-06
5.4834e-08
-3.39622e-06
2.65527e-06
-2.09185e-06
-4.51299e-08
6.65714e-08
2.59313e-06
-2.81339e-06
2.2026e-07
4.74348e-07
2.72615e-06
4.3436e-06
-4.2238e-06
1.51153e-06
1.91121e-06
-3.06566e-06
3.03029e-06
3.5376e-08
-7.03277e-08
-1.78394e-06
9.79027e-07
8.04917e-07
-3.23505e-08
3.33033e-06
-3.33033e-06
3.76966e-06
-2.18714e-06
-1.58253e-06
-2.75516e-06
-4.66434e-07
2.32601e-06
1.10191e-06
3.18727e-06
1.74932e-08
-3.00385e-06
2.98025e-06
1.91164e-08
-2.99937e-06
2.43875e-06
3.39622e-06
-3.37427e-06
8.54707e-08
3.96431e-06
-3.51317e-06
3.06832e-06
-3.2648e-06
3.04925e-06
-6.89955e-08
2.75229e-06
-2.97914e-06
2.96368e-06
1.54539e-08
1.38178e-07
2.39181e-06
-2.52999e-06
-2.70906e-06
2.23873e-06
-2.02595e-07
2.83221e-06
3.87355e-07
-2.76362e-08
-2.62229e-06
-4.57139e-07
-3.92952e-06
2.48536e-06
5.5319e-09
-2.98755e-06
-3.18025e-06
-1.50937e-07
4.2577e-06
-2.29724e-06
3.05605e-08
-5.51055e-07
3.38635e-06
-2.83529e-06
-1.44676e-06
-3.37181e-07
2.96703e-06
-2.99855e-06
3.1516e-08
-3.06832e-06
3.04576e-06
1.32109e-06
1.8852e-06
-3.20629e-06
3.18885e-06
-5.95715e-07
2.63873e-07
2.83508e-06
3.12847e-06
3.0689e-07
3.41537e-07
4.15625e-07
-3.33115e-06
7.3434e-08
-2.6428e-06
3.00721e-06
-1.53154e-06
1.84983e-06
2.82282e-07
-2.77687e-06
2.49459e-06
-2.31304e-08
5.66333e-08
-2.76864e-06
-3.15218e-06
3.09405e-06
5.81308e-08
-3.02219e-06
3.14149e-07
1.97512e-06
1.79455e-06
-1.70113e-06
3.48634e-06
-1.78521e-06
3.49606e-06
-3.26348e-06
-2.32585e-07
8.8233e-08
2.1505e-06
-2.99999e-06
-3.19214e-08
3.04489e-06
4.35875e-09
1.50399e-06
-5.24964e-07
3.87551e-06
-3.4842e-06
2.77376e-06
4.28776e-07
1.74173e-07
-3.0911e-06
4.68811e-07
4.64639e-08
-2.68926e-06
3.4511e-06
-2.79063e-06
2.81363e-06
-1.71156e-07
-2.67898e-06
2.85014e-06
-3.03036e-06
3.15642e-06
-3.74423e-08
-4.59081e-06
3.68342e-07
-1.98856e-08
2.97282e-06
5.74716e-08
-2.80504e-06
-3.08073e-06
3.06822e-06
1.25172e-08
3.69161e-06
-2.14632e-06
-1.54529e-06
-2.58458e-06
-2.32515e-07
2.81709e-06
-6.81519e-09
-3.04372e-06
6.55169e-08
-3.30123e-07
3.25359e-06
-2.92347e-06
-2.98249e-06
2.99739e-06
-4.33003e-06
-6.31306e-07
-4.18724e-06
4.08209e-06
1.05155e-07
2.38834e-06
1.2126e-06
2.79507e-06
2.51398e-07
-3.04646e-06
2.97145e-06
-1.21719e-07
2.39433e-06
1.19417e-06
-2.12304e-06
6.76279e-07
-3.005e-06
2.60919e-06
-2.96917e-06
-4.03348e-06
4.0189e-06
1.458e-08
3.6408e-06
-2.92308e-06
2.97273e-06
-9.04734e-09
1.82995e-07
-2.7725e-06
2.58951e-06
-4.48167e-08
-3.98866e-06
3.602e-06
-3.602e-06
-1.6408e-06
3.09078e-06
-1.44998e-06
-2.97429e-06
2.97429e-06
3.04273e-06
-2.68967e-06
-3.5306e-07
2.82488e-06
6.71682e-07
3.16941e-06
-2.60093e-06
3.13539e-06
-3.50717e-08
-2.45233e-06
-3.92871e-07
2.8452e-06
-3.98449e-06
3.99815e-06
-1.36578e-08
3.68105e-06
-2.2165e-06
-1.46455e-06
5.3702e-07
2.63239e-06
-4.02619e-06
4.00598e-06
2.02131e-08
-1.10017e-09
-2.94744e-08
3.97306e-06
-3.94359e-06
-4.0111e-06
4.0111e-06
-4.76722e-08
3.01471e-06
4.30525e-06
-4.01281e-06
-2.92441e-07
-4.02876e-06
3.99929e-06
4.02508e-06
-4.00467e-06
-2.0413e-08
-2.93234e-06
-6.62121e-08
3.43111e-06
-4.59772e-08
3.99857e-06
-3.95259e-06
3.99979e-06
-4.00735e-06
7.55965e-09
-3.02414e-06
3.97888e-06
-5.82466e-09
-3.07737e-06
3.05002e-06
2.73546e-08
-3.97816e-06
3.99261e-06
-1.44547e-08
3.04704e-06
-2.96791e-06
-4.01811e-06
3.97213e-06
3.08224e-06
-9.80711e-07
1.46778e-06
1.91857e-06
-2.22688e-06
-1.70264e-06
-4.0042e-06
4.0042e-06
-4.02254e-06
-6.22657e-09
3.72352e-06
-6.82866e-07
-3.04066e-06
-2.62256e-06
1.7822e-06
1.00238e-07
3.98534e-06
-3.99774e-06
1.23985e-08
2.93312e-06
-2.93135e-06
-1.76983e-09
4.1095e-06
-4.00267e-06
-1.06828e-07
3.96446e-06
2.08771e-08
3.95718e-06
4.13889e-08
-8.25131e-09
-2.96604e-06
-3.66865e-06
2.01874e-06
1.6499e-06
-2.96187e-06
2.98098e-06
3.97712e-06
-1.26598e-08
4.17153e-07
2.69926e-06
2.13934e-06
-8.18254e-07
-4.01238e-06
-5.72588e-09
3.27188e-06
1.94106e-06
-3.30744e-06
-5.04786e-07
-4.08602e-06
2.98667e-06
-3.00473e-06
1.80602e-08
-1.38579e-07
-4.04867e-06
3.10985e-06
-3.47747e-08
3.45623e-06
-2.3637e-06
-1.09253e-06
-2.9927e-06
3.98324e-06
-3.98324e-06
2.85231e-06
3.87854e-08
-2.8911e-06
3.06875e-06
-3.99163e-06
3.98636e-06
5.2656e-09
3.96321e-06
-4.00156e-06
3.83529e-08
2.5196e-06
-3.33709e-06
-1.07025e-08
-3.96352e-06
3.97422e-06
3.95435e-06
-3.96506e-06
-1.31754e-07
4.21384e-06
-3.16286e-06
3.42798e-06
-3.58584e-06
2.48768e-06
-6.30052e-08
4.0819e-06
3.42894e-07
1.76721e-06
3.5975e-08
3.68755e-06
-1.10739e-08
3.19113e-06
-3.18006e-06
-2.73075e-08
-4.00112e-06
-2.50731e-08
3.28614e-06
-3.29825e-07
-2.95631e-06
-3.97456e-06
3.97456e-06
2.33156e-06
-2.00658e-06
-4.00748e-06
3.99693e-06
1.05485e-08
3.06097e-06
-3.06097e-06
2.97878e-06
-4.56595e-08
3.97999e-06
-3.98639e-06
6.39972e-09
-3.8433e-06
1.05111e-06
3.30794e-09
-2.95645e-06
2.95314e-06
3.20631e-06
-2.6746e-08
3.98819e-06
3.68873e-08
2.4197e-06
4.12668e-07
-2.83236e-06
4.00052e-06
-2.1632e-08
3.10928e-06
-3.10928e-06
3.97513e-06
-3.96124e-06
-1.38873e-08
-3.04058e-06
3.01739e-06
2.3191e-08
4.00542e-06
-3.99332e-06
-1.21054e-08
-3.9812e-06
3.9812e-06
5.95267e-07
2.78859e-06
9.43363e-08
-2.88292e-06
-4.0078e-06
3.99733e-06
1.04734e-08
-1.49478e-08
-3.00187e-06
2.98431e-06
2.36022e-09
3.72454e-06
-7.01936e-07
-3.02261e-06
2.57377e-06
3.96502e-06
-3.976e-06
1.09746e-08
3.06538e-06
3.27249e-06
4.61325e-08
2.80618e-06
4.06584e-06
-7.76423e-08
3.95188e-06
1.31377e-08
2.90902e-06
-2.90902e-06
-1.53154e-06
4.02102e-06
-3.98934e-06
-1.22203e-08
3.9874e-06
-3.97242e-06
-1.49829e-08
7.82849e-08
-4.06315e-06
3.98487e-06
4.18293e-07
-4.02029e-06
-4.00055e-06
3.99362e-06
6.92704e-09
2.88844e-06
-2.88659e-06
-1.85161e-09
3.04273e-06
-2.68521e-06
2.68521e-06
3.95996e-06
-8.07226e-09
-2.96876e-06
-2.7725e-06
2.79507e-06
3.08135e-06
-3.22978e-08
-9.07959e-09
3.15807e-07
-3.93281e-06
3.98666e-06
-3.98801e-06
1.35496e-09
9.46526e-08
2.79379e-06
9.23012e-08
3.19384e-06
3.00114e-06
-2.236e-08
-3.99173e-06
3.98702e-06
4.7174e-09
3.95648e-06
-3.96772e-06
1.12358e-08
-3.98799e-06
-1.94921e-08
3.97727e-06
-3.96674e-06
-1.05252e-08
3.00348e-06
5.74994e-08
3.97959e-06
1.73402e-08
-5.07896e-09
3.97081e-06
1.62106e-08
-6.09148e-10
-2.94242e-06
-4.03129e-06
4.26317e-08
-2.9834e-06
2.9834e-06
3.81489e-08
3.68639e-06
-3.0319e-06
5.79578e-07
2.104e-08
3.97875e-06
1.66403e-07
-2.87052e-06
2.70411e-06
2.79403e-08
3.98316e-06
3.80046e-06
-4.14456e-06
3.00158e-06
1.07702e-07
3.95435e-06
-3.0375e-08
2.81896e-06
-2.90035e-06
1.37609e-08
2.85862e-06
-4.38923e-07
-3.96425e-06
3.96425e-06
-3.98542e-06
-2.23836e-08
2.68967e-06
-2.78624e-06
9.6568e-08
-3.98316e-06
2.93495e-06
-2.93164e-06
3.97763e-06
1.96987e-08
-3.97941e-06
-3.54118e-06
2.46537e-06
-3.99657e-06
3.98988e-06
6.69007e-09
2.71527e-06
2.56176e-07
2.95645e-06
1.78445e-08
-3.95131e-06
3.97856e-06
-2.72479e-08
-3.00359e-06
2.9771e-06
2.64961e-08
-3.96395e-06
1.26393e-08
2.98983e-06
-5.52261e-09
1.64372e-07
-3.09003e-06
2.92565e-06
3.96311e-06
-3.98074e-06
1.76345e-08
3.2238e-06
-3.37474e-06
3.96265e-06
-3.96221e-06
-4.39263e-10
-2.53055e-06
2.53055e-06
-3.11751e-06
3.11751e-06
-3.95806e-06
-5.8885e-09
-1.84983e-06
2.19272e-06
-3.96947e-06
3.96362e-06
5.85301e-09
3.11609e-08
3.97303e-06
2.475e-06
-2.19272e-06
-2.475e-06
2.61318e-06
2.6262e-06
-3.01907e-06
3.62939e-06
-2.14925e-06
-1.48014e-06
-3.98363e-06
-1.69209e-08
-5.72789e-07
-2.61318e-06
3.18597e-06
3.97861e-06
1.5017e-08
-3.01484e-06
2.7926e-06
3.99011e-06
-3.98203e-06
-8.08479e-09
-3.96658e-06
-2.98784e-06
3.00301e-06
-9.39903e-08
-1.06742e-08
3.9878e-06
3.97092e-06
-2.95314e-06
-4.06568e-06
-2.38706e-06
3.04646e-06
-6.59408e-07
-3.94916e-06
-1.43591e-08
3.96592e-06
4.88495e-09
2.31256e-06
-2.36329e-06
5.07286e-08
4.58405e-09
2.78624e-06
-2.89868e-06
1.12441e-07
1.83463e-06
1.85698e-06
-3.98185e-06
-1.47266e-08
-3.01698e-06
3.94848e-06
-3.94515e-06
-3.32463e-09
3.97704e-06
1.28447e-08
-3.98862e-06
3.98431e-06
4.30669e-09
3.04968e-06
3.00348e-06
-3.95864e-06
3.94991e-06
8.73102e-09
3.98657e-06
-3.98479e-06
-1.77955e-09
-2.96545e-06
3.00158e-06
3.95677e-06
-3.95677e-06
1.5844e-08
3.99013e-06
-2.49823e-06
-5.33678e-07
3.965e-06
-1.897e-09
-5.08468e-07
2.70764e-06
-2.19917e-06
3.95487e-06
-3.95145e-06
-3.42073e-09
1.2147e-08
3.97109e-06
3.94766e-06
-3.95121e-06
3.55153e-09
-3.99391e-06
-3.97948e-06
-2.39781e-06
3.46847e-09
3.98289e-06
-4.27579e-09
-3.96904e-06
3.97332e-06
-3.95702e-06
3.94835e-06
8.67157e-09
-3.98168e-06
-6.93778e-09
-3.01378e-06
-2.91137e-06
1.10147e-08
3.97758e-06
6.73834e-09
-3.95342e-06
3.95175e-06
1.67265e-09
-3.95612e-06
1.49452e-08
3.94118e-06
3.98051e-06
9.60507e-09
-3.96816e-06
-1.38643e-08
-2.89531e-06
-1.3712e-08
3.97857e-06
-3.981e-06
2.43084e-09
3.95524e-06
-3.95952e-06
-3.96311e-06
3.95764e-06
5.47618e-09
3.95322e-06
-3.95002e-06
-3.20095e-09
2.9809e-06
2.50525e-09
3.97986e-06
6.71402e-09
-3.97428e-06
-1.0516e-08
-3.98882e-06
3.00301e-06
-3.95536e-06
3.94744e-06
7.91661e-09
2.62554e-06
-2.7967e-06
-3.9442e-06
3.95903e-06
-1.48322e-08
3.95647e-06
-3.96239e-06
5.92591e-09
-9.75514e-09
-3.97784e-06
-3.84419e-09
-1.03558e-08
-3.51236e-06
2.49162e-06
-6.81211e-09
3.95524e-06
-6.5903e-09
-4.27073e-09
-3.9812e-06
3.35848e-09
1.52402e-06
3.34371e-06
-4.86773e-06
-8.23744e-07
3.97855e-06
1.54755e-11
-3.97109e-06
7.39035e-09
3.96717e-06
-3.97343e-06
-7.56732e-09
-2.99074e-06
-3.98516e-06
3.966e-09
1.4032e-08
3.96596e-06
-6.00066e-10
1.89199e-08
-3.91781e-06
3.89889e-06
3.98408e-06
-3.98206e-06
-2.01827e-09
-3.04416e-06
5.45931e-07
3.97641e-06
-3.96945e-06
-6.95652e-09
-3.979e-06
-2.9508e-06
-1.55666e-07
3.95239e-06
-3.94926e-06
-3.13166e-09
2.08368e-08
-3.92153e-06
3.90069e-06
-3.98307e-06
3.97564e-06
7.42843e-09
-3.01167e-06
2.9865e-06
2.51762e-08
3.45928e-09
-3.98301e-06
-2.15077e-09
-3.02996e-06
6.28772e-07
2.40119e-06
-3.97784e-06
-5.22986e-09
3.98274e-06
1.34007e-09
-3.97621e-06
-5.85414e-09
-1.59346e-08
-3.98329e-06
2.79153e-10
-2.86482e-06
-3.31626e-07
3.19644e-06
2.29037e-06
1.67606e-08
-3.96717e-06
2.9875e-06
-1.04045e-08
-3.95222e-06
3.95222e-06
-7.6493e-09
3.98084e-06
1.89646e-09
-3.16208e-09
6.23255e-09
6.42832e-09
3.98234e-06
-1.49984e-09
2.34219e-09
3.9813e-06
-3.98134e-06
3.72705e-11
2.87347e-06
-2.87347e-06
-3.97309e-06
3.96453e-06
8.56123e-09
3.95885e-06
-3.9548e-06
-4.04847e-09
-5.61101e-09
3.97986e-06
2.48411e-09
3.98004e-06
1.26077e-09
-1.47772e-09
3.98035e-06
3.97656e-06
-3.97874e-06
2.18402e-09
-4.01495e-06
-3.96384e-06
-9.25435e-09
3.06464e-06
-3.75543e-08
3.97301e-06
3.54572e-09
3.32387e-08
3.97602e-06
-3.97166e-06
-4.36273e-09
-2.84004e-06
2.84004e-06
2.2394e-08
3.95881e-06
-3.95153e-06
3.9579e-06
-6.36923e-09
3.97518e-06
8.389e-10
2.80399e-08
2.9731e-06
3.97048e-06
-3.96895e-06
-1.5277e-09
-3.93912e-06
-1.24086e-08
3.95937e-06
-3.96261e-06
3.23646e-09
3.9679e-06
2.57724e-09
3.97522e-06
4.81561e-09
-3.93604e-08
-3.92968e-06
-5.99856e-09
-3.50338e-07
-2.66895e-06
3.95306e-06
-3.95689e-06
3.8365e-09
1.17896e-07
2.75557e-06
3.96998e-06
-3.96624e-06
-3.74404e-09
-3.51791e-09
-6.85072e-08
-3.29954e-06
3.36805e-06
-2.87547e-06
2.90841e-06
-3.29333e-08
-3.93447e-06
3.93574e-06
-1.27823e-09
3.96538e-06
4.60399e-09
-3.9536e-06
-2.47022e-06
3.99424e-06
3.96696e-06
-3.9613e-06
-5.65452e-09
-3.97078e-06
3.97088e-06
-9.552e-11
3.95947e-06
-3.95589e-06
-3.57899e-09
-3.85546e-07
-3.39619e-06
3.78174e-06
3.96286e-06
4.10061e-09
-3.93753e-06
3.06044e-09
3.96754e-06
-3.96246e-06
-5.07403e-09
2.9809e-06
-3.05266e-06
3.05266e-06
3.96605e-06
-3.95856e-06
-7.4918e-09
-7.69866e-09
3.96766e-06
-6.25386e-09
-2.98491e-06
3.96042e-06
5.63018e-09
-3.97041e-06
-7.43506e-09
-3.93143e-06
3.93355e-06
-2.11528e-09
3.97085e-06
2.15795e-09
6.73808e-08
3.93076e-06
-8.02134e-10
3.96719e-06
1.00788e-08
2.97191e-06
1.55916e-08
4.71197e-10
-3.93536e-06
3.92995e-09
3.0279e-07
1.1066e-08
1.27819e-07
3.95578e-06
-3.95948e-06
3.70295e-09
-3.92726e-06
3.93185e-06
-4.59257e-09
7.11474e-08
-2.97639e-06
2.90524e-06
5.31967e-07
-3.09974e-06
2.56777e-06
1.13392e-06
2.81144e-06
-2.81144e-06
3.953e-06
-3.953e-06
-3.24974e-06
1.81063e-09
-3.96045e-06
3.0335e-06
3.96624e-06
8.94516e-09
-7.47116e-07
-1.39129e-06
2.1384e-06
-3.93304e-06
5.7757e-09
-3.93512e-06
-1.28035e-07
1.68169e-06
-2.77423e-06
1.09254e-06
-2.71356e-09
2.69707e-08
3.93206e-06
9.05757e-09
2.98078e-06
-3.97194e-06
8.37423e-09
3.95587e-06
2.52354e-06
-3.07926e-06
5.55724e-07
2.56732e-06
-8.85632e-07
-4.96079e-09
-3.95206e-06
3.97257e-06
-3.9456e-06
-3.9611e-06
-3.92207e-06
3.91834e-06
3.73252e-09
9.02877e-10
3.96272e-06
3.94888e-06
4.11794e-09
3.60843e-06
-2.39562e-06
-1.2128e-06
-1.32598e-08
3.01484e-06
3.96161e-06
6.29232e-09
3.60732e-06
-3.99287e-06
2.69125e-08
3.93194e-06
-4.68219e-09
-3.95067e-06
-3.92671e-06
4.63536e-09
-2.88363e-06
8.15336e-09
3.03071e-06
-2.43027e-06
-6.0044e-07
3.94181e-06
-3.94213e-06
3.26762e-10
-4.6288e-09
1.13775e-06
-1.5989e-06
-1.49718e-06
3.09609e-06
3.9492e-06
-3.95527e-06
6.06164e-09
3.14233e-06
-3.10355e-06
-1.03046e-08
3.01378e-06
-2.58778e-06
1.84067e-06
3.9452e-06
-3.94915e-06
3.95071e-09
3.96794e-06
-3.94102e-06
-2.97269e-06
9.92205e-08
-2.98405e-06
2.97995e-06
4.10153e-09
2.89868e-06
-2.96719e-06
6.31752e-08
3.92944e-06
-3.01262e-06
2.91926e-06
-1.06388e-07
3.96172e-06
-3.95692e-06
-4.80442e-09
3.08413e-06
-2.94564e-06
-1.3849e-07
3.94888e-06
-2.39103e-09
-3.95103e-06
-2.92086e-06
9.49272e-09
3.66442e-07
2.24352e-06
-2.60997e-06
-3.91706e-06
3.9128e-06
4.26096e-09
3.94258e-06
1.38842e-08
-2.49641e-06
-5.22658e-07
2.88305e-08
3.93064e-06
3.95508e-06
-3.96437e-06
9.28878e-09
3.95029e-06
-7.28216e-09
-3.93787e-06
-3.08499e-06
-5.20621e-07
3.95713e-06
8.24202e-09
4.20835e-06
-8.64641e-07
-2.4128e-08
3.95331e-06
-3.92918e-06
3.95143e-06
3.65538e-09
-3.92269e-06
5.62812e-09
-3.93386e-06
-2.83501e-08
-7.51518e-09
3.9004e-06
-3.89288e-06
5.14885e-09
3.95163e-06
3.96846e-06
-3.93963e-06
-3.95587e-06
-1.39746e-08
3.01698e-06
-4.17103e-09
2.99175e-06
-1.53166e-07
-2.83858e-06
4.04894e-08
2.95126e-06
-3.906e-06
3.89848e-06
-3.95525e-06
-8.58542e-09
2.5108e-06
5.19913e-07
-1.48593e-08
3.05894e-06
-3.04408e-06
-2.53472e-06
-2.11965e-06
2.48609e-06
-3.30526e-06
4.09698e-07
2.89556e-06
3.94991e-06
3.03019e-09
-3.95448e-06
3.94293e-08
3.93314e-06
3.94402e-06
-3.94461e-06
5.91131e-10
3.95264e-06
-3.94086e-06
-1.17851e-08
-3.95796e-06
2.64577e-09
-5.68657e-09
-2.98695e-06
2.99264e-06
5.93586e-10
3.95704e-06
-2.74487e-06
8.03948e-07
-3.95285e-06
3.9506e-06
2.25015e-09
-3.91156e-06
3.90687e-06
4.68097e-09
3.89333e-08
3.22963e-06
-3.1353e-06
2.36998e-06
-5.7425e-08
-2.06689e-08
3.95553e-06
-3.93486e-06
-3.52615e-06
1.92724e-06
3.94854e-06
3.49771e-09
-3.95352e-06
3.95263e-06
1.02333e-08
-3.69352e-06
3.66045e-08
3.65691e-06
6.22998e-09
-3.91779e-06
3.94486e-06
-3.94072e-06
-4.14289e-09
-1.25639e-07
3.96823e-06
-3.84259e-06
-5.93522e-09
-8.12161e-07
3.71387e-06
-2.90171e-06
-2.97269e-06
-3.2879e-06
3.94734e-06
-2.14129e-09
3.48101e-08
3.93313e-06
3.8494e-06
3.98486e-06
-3.98216e-06
-2.69838e-09
6.90546e-10
-2.99294e-06
2.99225e-06
-3.94964e-06
3.94695e-06
2.68848e-09
7.99791e-08
-2.97529e-06
2.89531e-06
3.95485e-06
-3.95323e-06
-1.61644e-09
-3.0621e-06
3.04724e-06
3.94323e-06
-3.94018e-06
-3.0454e-09
1.10822e-08
3.94156e-06
-4.49717e-08
3.96419e-06
-3.95211e-06
3.90314e-08
-2.91429e-06
3.95198e-06
-3.95128e-06
-6.98083e-10
3.95e-06
2.30483e-09
-3.95156e-06
3.92976e-06
8.31393e-09
-3.93807e-06
9.47914e-10
3.95246e-06
-3.94138e-06
-9.52292e-09
-2.9929e-06
3.00242e-06
2.12298e-06
-3.12297e-06
9.99989e-07
-6.6228e-07
-3.03124e-06
-2.90435e-06
-6.51251e-07
-2.54729e-06
-3.94762e-06
2.28616e-08
3.92476e-06
-3.01103e-06
2.9929e-06
1.81296e-08
-9.16208e-07
-2.42089e-06
-3.94551e-06
3.52224e-06
-3.93736e-06
3.94433e-06
-6.96525e-09
-3.29011e-06
3.26421e-07
2.96369e-06
3.14393e-06
-2.41547e-06
-7.2846e-07
-3.95122e-06
7.96145e-09
3.94326e-06
2.99809e-06
-2.96035e-06
8.30123e-09
3.93656e-06
-3.95163e-06
4.02989e-09
3.94819e-06
3.94754e-06
1.2878e-08
-6.63168e-10
-3.95054e-06
-1.28874e-08
-3.93996e-06
-3.94134e-06
2.99471e-06
-2.9581e-06
-1.68276e-08
8.44478e-07
2.61175e-06
-2.70065e-06
2.70065e-06
3.44003e-08
3.93406e-06
-4.47885e-06
-3.64372e-06
3.64441e-06
3.95294e-06
2.99241e-06
-2.97029e-06
-3.94693e-06
3.93405e-06
-3.3368e-06
3.41678e-06
3.94414e-06
-3.94069e-06
-3.45062e-09
4.81141e-09
3.94825e-06
-3.99441e-06
3.00525e-06
-3.01477e-06
-3.94576e-06
6.64617e-09
1.48687e-06
3.95545e-06
-3.95064e-06
-4.80614e-09
-3.95287e-06
3.94434e-06
-3.94105e-06
-3.28972e-09
-3.94368e-06
-3.93566e-09
3.93524e-06
-3.92318e-06
-3.01695e-06
3.62691e-06
3.94092e-06
-3.93964e-06
-1.2758e-09
-6.9692e-09
3.93673e-06
-3.01103e-06
2.6101e-06
-2.82837e-06
2.18268e-07
-4.85751e-06
4.85751e-06
3.95108e-06
3.95184e-06
-1.00206e-08
6.65729e-09
-3.9506e-06
3.96447e-06
-1.38684e-08
3.94314e-06
-3.93983e-06
-3.30846e-09
-3.27188e-06
3.11621e-06
1.22525e-08
3.94106e-06
-3.95115e-06
1.07019e-08
3.94045e-06
-3.93953e-06
3.94805e-06
-3.94277e-06
-3.02591e-06
-3.94788e-06
1.32324e-08
3.93465e-06
-3.03004e-06
-8.56779e-09
2.9569e-06
-2.97893e-06
2.20303e-08
3.93796e-06
-3.94128e-06
3.31899e-09
7.32699e-08
-3.94782e-06
3.94126e-06
6.56552e-09
3.9455e-06
-2.89323e-06
-2.87317e-06
-4.76875e-08
3.9504e-06
-3.9504e-06
-2.0053e-08
3.00095e-06
-3.94819e-06
3.9424e-06
-3.9391e-06
-3.30239e-09
3.94975e-06
-2.20661e-08
-3.94467e-06
-2.93717e-06
-3.62375e-07
-3.01355e-06
2.35919e-06
-2.63528e-06
2.76091e-07
-5.90153e-07
-2.54889e-06
3.13905e-06
3.93511e-06
-3.92467e-06
2.55377e-06
-2.97639e-06
-8.547e-09
-3.94268e-06
3.94453e-06
-3.94126e-06
-3.27378e-09
3.03051e-06
-3.04572e-06
-8.32469e-07
-5.51173e-07
1.38364e-06
-3.14317e-06
3.16965e-06
3.04144e-06
-3.00095e-06
-1.18473e-08
-2.94952e-06
2.96137e-06
-1.47176e-08
-2.92664e-06
2.94136e-06
9.88877e-09
-3.06846e-06
3.05857e-06
2.80871e-08
-3.08065e-06
3.05257e-06
1.43025e-08
-3.01797e-06
3.00367e-06
-5.55209e-09
-2.95411e-06
2.95966e-06
-6.08602e-09
-2.95169e-06
2.95778e-06
1.77563e-06
-1.19659e-06
-5.79036e-07
2.62002e-06
1.93421e-08
3.93619e-06
2.88732e-06
-2.90508e-06
1.7757e-08
9.27344e-09
-3.94296e-06
3.93369e-06
3.95321e-06
-3.95321e-06
3.90085e-06
-7.76878e-10
-3.90007e-06
-1.32422e-08
-3.93369e-06
3.94211e-06
-3.93867e-06
-3.43727e-09
-2.45038e-06
-3.21702e-06
-7.30896e-08
2.58348e-06
5.00654e-07
3.95008e-06
-3.94469e-06
-5.39057e-09
-3.00674e-06
3.12536e-06
1.31283e-08
3.93933e-06
-2.16794e-06
-1.35821e-06
2.99775e-08
2.82954e-06
-2.85952e-06
-2.02058e-06
-3.42709e-07
-6.7796e-07
-4.19213e-07
1.09717e-06
2.96673e-06
2.96718e-06
3.09655e-06
3.09684e-06
3.07527e-06
3.03496e-06
-1.38951e-08
-2.97395e-06
2.98785e-06
2.97608e-06
-4.1724e-09
-1.1714e-06
3.94339e-06
-3.93411e-06
-9.76962e-08
3.17213e-06
-3.95516e-06
-2.6997e-06
3.33927e-06
3.89586e-06
3.09054e-09
-3.89895e-06
3.95843e-06
-8.02538e-09
-3.94988e-06
1.42249e-08
3.93566e-06
-2.97884e-06
-2.98695e-06
2.98619e-06
-3.00009e-06
-2.71777e-06
3.28154e-06
-5.63769e-07
-7.07339e-09
-3.94081e-06
2.06039e-06
-2.56886e-06
6.50893e-09
-3.94722e-06
-3.94255e-06
-1.04852e-06
-1.53926e-06
-3.9355e-06
-7.46244e-09
3.02165e-06
9.43157e-07
2.29961e-06
3.93828e-06
-3.93524e-06
-3.0398e-09
3.00134e-06
-1.9871e-06
-1.01424e-06
-1.42962e-06
7.51664e-07
-1.65743e-06
3.58467e-06
-1.43653e-06
2.98592e-06
-1.5494e-06
1.30829e-09
3.9479e-06
-3.92087e-06
3.94102e-06
-3.94332e-06
2.29869e-09
-2.23187e-06
9.51416e-07
1.28045e-06
-1.31456e-08
-2.97313e-06
2.98628e-06
4.12765e-06
-1.82647e-06
-2.30117e-06
2.8751e-09
3.89797e-06
-8.58112e-07
-1.37376e-06
-2.88005e-06
2.91002e-06
2.45761e-06
1.6241e-07
-2.86667e-06
-6.04982e-09
-2.97701e-06
2.98306e-06
3.0746e-06
-2.97995e-06
-1.83037e-06
-6.94481e-07
2.52485e-06
-3.93504e-06
3.93618e-06
-1.13656e-09
-2.90921e-06
2.94824e-06
3.93934e-06
-3.9419e-06
-2.63391e-06
-6.67394e-08
-3.96871e-06
3.95373e-06
-2.0547e-06
2.96951e-09
3.94136e-06
3.4371e-06
-1.89955e-06
-1.53756e-06
2.9087e-06
-5.4951e-07
3.25079e-06
-4.21246e-07
2.98162e-06
-2.99476e-06
3.93403e-06
-3.93417e-06
1.39298e-10
2.98444e-06
-2.99049e-06
3.61666e-09
-3.93196e-06
3.92835e-06
-1.65838e-06
-3.96325e-07
8.50684e-09
-3.02546e-06
-3.94311e-06
5.58129e-09