/*--------------------------------*- C++ -*----------------------------------*\
  =========                 |
  \\      /  F ield         | OpenFOAM: The Open Source CFD Toolbox
   \\    /   O peration     | Website:  https://openfoam.org
    \\  /    A nd           | Version:  12
     \\/     M anipulation  |
\*---------------------------------------------------------------------------*/
FoamFile
{
    format      ascii;
    class       surfaceScalarField;
    location    "0.2";
    object      phi;
}
// * * * * * * * * * * * * * * * * * * * * * * * * * * * * * * * * * * * * * //

dimensions      [0 3 -1 0 0 0 0];

internalField   nonuniform List<scalar> 
6438
(
-3.25461e-08
4.05787e-06
-4.02533e-06
-3.5318e-08
4.71409e-06
-4.67878e-06
-4.42234e-06
-7.51412e-07
5.17375e-06
4.19556e-06
-4.6054e-06
4.09836e-07
6.44571e-06
-5.03585e-06
-1.40986e-06
1.4595e-06
4.98621e-06
-5.02762e-06
6.05287e-07
-4.35686e-06
4.32154e-06
4.70879e-06
-5.62047e-06
9.11672e-07
4.37523e-06
-5.13164e-06
7.56409e-07
-4.23066e-06
5.14779e-06
-9.17135e-07
1.01509e-06
-4.63612e-06
3.62103e-06
-5.2417e-06
1.01104e-06
4.0207e-06
1.84642e-06
-5.86711e-06
3.77808e-06
-3.81063e-06
-2.13672e-07
4.42806e-06
-4.21438e-06
-5.57873e-06
5.41062e-06
1.68106e-07
-4.22377e-06
5.13073e-06
-9.06955e-07
-5.23971e-06
1.01593e-06
1.66314e-06
3.51381e-06
-5.17696e-06
-1.21117e-06
-7.91476e-07
2.00264e-06
-2.57643e-07
4.63724e-06
-4.37959e-06
-4.30203e-06
-6.96654e-07
4.99868e-06
-5.26789e-06
2.30989e-06
2.958e-06
-4.5684e-06
4.31076e-06
-4.0571e-06
4.93161e-06
-8.7451e-07
-4.96407e-06
6.62041e-07
4.70151e-06
-3.68643e-06
-4.27085e-06
-8.0142e-07
5.07227e-06
-5.16818e-06
1.11107e-06
3.95481e-06
-4.97387e-06
1.01906e-06
2.19641e-08
-4.84202e-06
4.82005e-06
4.73891e-06
-4.76758e-06
2.86683e-08
-4.69523e-06
7.88717e-07
3.90651e-06
-6.33954e-06
1.0263e-06
5.31324e-06
4.4584e-06
-4.43644e-06
4.49906e-06
-3.03499e-07
2.91872e-06
4.08856e-06
-7.00728e-06
-1.44723e-06
5.46792e-06
-4.18719e-06
4.60067e-06
-4.13476e-07
-4.85159e-06
4.80752e-06
4.40785e-08
-2.01433e-06
3.67747e-06
4.3375e-06
3.77235e-08
-5.21451e-06
5.10817e-06
1.06344e-07
4.66912e-06
-7.1431e-07
-3.51347e-06
3.2998e-06
-6.06194e-06
1.02609e-06
4.60961e-06
4.43288e-07
-5.0529e-06
-3.57803e-06
-1.11719e-06
-6.58283e-07
-4.31134e-06
4.89182e-06
-5.80478e-07
-3.20702e-06
4.63102e-06
-1.42401e-06
4.65131e-06
-4.65131e-06
1.4621e-06
3.52736e-06
4.63856e-07
-3.99121e-06
2.07042e-06
1.00724e-06
-3.07765e-06
3.93846e-06
8.30181e-07
-4.76864e-06
3.80352e-06
-1.49363e-06
-2.2053e-06
-3.85664e-06
-4.5976e-08
4.10086e-06
-4.05489e-06
-5.05746e-06
5.05746e-06
-5.23971e-06
5.29394e-06
-5.42273e-08
2.11742e-07
3.89465e-06
-4.10639e-06
1.44387e-08
-4.77214e-06
4.7577e-06
4.42872e-06
-4.41428e-06
-4.82915e-06
5.58304e-07
-4.84155e-06
-3.72961e-07
-4.16477e-06
4.57791e-06
-4.13138e-07
4.60493e-07
3.98717e-06
-4.44766e-06
-4.89697e-06
4.70939e-06
1.87573e-07
4.77339e-06
-4.77339e-06
4.43554e-06
2.73258e-07
-2.91453e-06
-2.2171e-06
4.15761e-06
8.76287e-07
-5.03389e-06
-4.07814e-06
-7.7345e-07
3.62291e-06
2.799e-06
-6.4219e-06
-5.61033e-06
3.596e-06
-3.57996e-06
-2.03036e-06
4.94404e-06
-7.86434e-07
2.94532e-06
-8.74898e-07
4.00206e-06
4.58035e-07
-4.46009e-06
-4.93494e-06
-3.04771e-07
-6.97662e-07
-1.20178e-06
-3.85568e-06
5.34994e-06
-5.34994e-06
-3.53621e-06
-1.36076e-06
-3.20412e-07
-6.01913e-06
-4.61609e-06
4.59745e-06
1.86396e-08
1.66173e-07
-4.675e-06
4.50882e-06
-5.13937e-07
4.51599e-06
4.62075e-06
1.18162e-07
-4.82676e-06
-7.51969e-07
-4.87423e-06
4.99878e-06
-1.24554e-07
5.08642e-06
-2.84684e-06
-2.23958e-06
4.56406e-06
-4.39789e-06
9.3303e-08
5.11798e-06
-2.60464e-06
-2.51334e-06
2.91191e-06
2.17451e-06
4.69765e-06
-4.69765e-06
-3.60302e-06
5.16916e-06
-1.56614e-06
-4.52833e-06
2.16985e-07
-6.19243e-07
-3.66781e-06
4.28705e-06
-4.24404e-06
1.65899e-07
-4.54803e-06
9.45007e-07
3.92428e-06
8.65749e-07
-4.79003e-06
-2.73252e-07
4.19753e-06
-4.09839e-06
4.73525e-06
-6.36861e-07
-4.35484e-06
1.67644e-07
3.00225e-06
2.11574e-06
4.53533e-06
-9.14295e-07
1.94894e-07
4.45642e-06
-3.91461e-06
-3.29431e-07
4.09299e-06
8.70825e-07
-4.96382e-06
-2.26266e-06
-1.95227e-06
4.21494e-06
2.9794e-06
-3.75501e-07
-2.6039e-06
-4.84202e-06
9.82294e-07
4.85483e-06
-5.83712e-06
-2.25031e-06
1.03914e-06
4.84304e-06
8.85723e-08
5.24969e-06
-2.71654e-06
-2.53315e-06
1.75735e-06
3.49234e-06
4.90221e-06
-8.09216e-07
5.97973e-06
-3.06101e-06
-4.43094e-06
1.23312e-08
4.41861e-06
-6.33666e-06
6.47341e-07
5.68931e-06
-7.25113e-08
-4.39886e-06
4.47137e-06
4.83876e-06
2.69406e-07
-3.73202e-06
3.68604e-06
-4.45287e-06
4.54241e-06
-8.95481e-08
4.50884e-06
-4.58135e-06
4.65256e-06
-4.65256e-06
4.58227e-06
1.31828e-07
4.59099e-06
-1.06363e-06
4.5289e-06
-4.31716e-06
-3.98952e-06
3.37028e-06
4.09645e-08
4.39641e-06
-4.43737e-06
5.17013e-06
-3.62332e-06
-1.54681e-06
-4.77214e-06
-6.86276e-08
5.35563e-08
-4.41041e-06
-4.42039e-06
2.55627e-07
5.08776e-08
4.40753e-06
4.26539e-06
-3.80489e-06
-4.39889e-06
3.00501e-07
4.46302e-06
-1.25518e-07
-1.59211e-07
3.88377e-06
-3.72456e-06
3.05551e-06
2.11463e-06
-4.57423e-06
9.81954e-07
3.59228e-06
4.66259e-06
-3.1568e-08
-6.16626e-06
5.61154e-07
5.60511e-06
-6.22532e-08
-4.37567e-06
4.43793e-06
2.90858e-06
7.08215e-08
2.7806e-07
4.38453e-06
4.33943e-06
3.62079e-07
4.4825e-06
-4.54476e-06
-4.67126e-06
-1.55503e-07
4.76461e-06
-5.11904e-06
3.54425e-07
-4.26027e-06
-1.70669e-07
-5.18478e-06
2.24778e-06
2.937e-06
1.49327e-09
4.4825e-06
1.54732e-07
-4.21871e-06
4.90592e-06
-6.87208e-07
-4.65079e-06
4.00571e-06
6.45081e-07
-6.28785e-07
1.62516e-06
-9.96374e-07
-1.45783e-06
-3.71035e-06
-4.675e-06
-3.68631e-08
4.46559e-06
1.3687e-06
3.80046e-06
-7.44945e-08
-4.54684e-06
-2.15562e-08
-9.61793e-08
-4.97084e-06
4.20055e-06
7.70292e-07
-2.91966e-07
3.70484e-06
7.30699e-07
7.26701e-06
-3.17845e-06
-1.53781e-06
-3.7019e-06
4.55819e-06
6.25635e-08
-3.91373e-06
1.65106e-06
-1.75657e-06
-2.77386e-06
4.53043e-06
-1.56875e-06
-3.67295e-06
-2.55217e-06
6.17508e-06
-4.70066e-06
1.53814e-07
-4.43784e-06
4.45481e-06
-1.69771e-08
-3.66678e-06
3.50757e-06
-5.33101e-08
-4.34951e-06
4.40282e-06
-4.78216e-06
8.14983e-08
3.98827e-06
-4.7456e-06
7.57331e-07
4.44346e-06
-4.49677e-06
3.971e-06
-1.50346e-06
-2.46754e-06
-6.00601e-06
2.12659e-06
3.87942e-06
4.07181e-06
3.91215e-07
3.36321e-06
2.04741e-06
9.82682e-07
4.36726e-06
-1.1662e-06
-4.18375e-06
-4.8398e-06
4.79671e-06
4.30941e-08
-4.82661e-06
-1.31892e-08
-4.80205e-06
-2.45624e-08
1.45518e-08
1.24946e-06
-6.99185e-06
5.74239e-06
-5.1924e-06
6.17469e-06
4.10012e-06
-4.05915e-06
4.38118e-06
1.82878e-07
3.57245e-07
3.61375e-06
-4.39886e-06
-3.98816e-06
3.96948e-06
4.94692e-07
-4.46418e-06
-2.24324e-08
-9.46864e-07
6.98008e-06
-6.03322e-06
6.62126e-06
-4.77485e-06
-2.00881e-06
3.01605e-06
-1.27363e-06
-3.91115e-06
-3.47464e-06
-2.53138e-06
-4.39768e-06
-2.73581e-07
-4.42849e-06
4.42783e-06
6.68214e-10
-6.9944e-07
4.15739e-06
-3.45795e-06
-4.75467e-06
4.78818e-06
-3.35041e-08
-4.70497e-06
-4.9701e-08
-6.04651e-06
3.76915e-07
5.66959e-06
-4.2256e-06
-2.74113e-07
4.49971e-06
4.73733e-06
5.08424e-08
-8.41979e-07
-5.17662e-06
1.88657e-06
3.29005e-06
2.96381e-08
-2.7405e-06
-2.43612e-06
-6.47176e-08
-4.82882e-08
-4.32464e-06
4.37293e-06
-4.44726e-06
2.21661e-07
4.01922e-06
5.38967e-07
4.63214e-06
-4.43725e-06
4.4014e-06
-4.44969e-06
4.38278e-06
1.26062e-07
2.15459e-06
4.46667e-06
4.57277e-06
-8.67937e-07
-3.59315e-07
-5.97734e-06
-2.61541e-07
3.61254e-06
-3.35099e-06
-4.6825e-06
-2.2475e-08
-4.68181e-06
-6.89811e-10
4.71927e-06
-4.68556e-06
-3.37149e-08
4.66806e-06
5.12163e-08
-4.37567e-06
1.08099e-06
-1.48449e-06
4.035e-07
-5.28725e-06
3.09419e-06
2.19307e-06
2.36696e-06
-4.74581e-06
2.37885e-06
-4.14295e-06
-3.85376e-07
-4.41369e-06
4.39183e-06
2.18693e-08
-4.59158e-06
4.42858e-06
1.63004e-07
-3.66711e-07
4.69887e-06
-4.33216e-06
-4.5587e-06
1.11445e-07
-5.06171e-06
6.31117e-06
-4.69426e-07
-4.10481e-06
-4.75886e-06
4.39215e-06
-3.72857e-06
-3.43042e-07
4.07161e-06
-3.49387e-06
4.63803e-06
3.00287e-08
-3.17607e-06
-8.50151e-07
9.42569e-07
-9.24182e-08
-4.37775e-08
1.70532e-07
-6.03887e-06
5.86834e-06
-3.38485e-06
-1.64277e-06
-4.70361e-06
4.60765e-06
9.59612e-08
-4.6315e-06
-7.21119e-08
-1.66524e-06
1.03645e-06
4.37477e-06
1.07739e-07
4.67134e-06
-7.76695e-07
4.6272e-06
-4.62195e-06
-5.2543e-09
-1.24563e-08
-4.29133e-06
4.30379e-06
4.84399e-06
-3.47529e-06
-5.83577e-08
4.8027e-06
2.71173e-06
-7.51443e-06
4.7588e-06
-4.7588e-06
7.36534e-07
4.32092e-06
-1.67943e-06
-2.97189e-06
-3.79361e-06
4.57269e-06
-7.79086e-07
-5.05324e-07
-4.08626e-06
4.37922e-06
-4.39168e-06
-4.19388e-06
7.09675e-08
4.12291e-06
8.04781e-07
-4.2506e-06
3.44582e-06
-4.40102e-06
4.35543e-06
4.55889e-08
2.81147e-06
2.03252e-06
-1.37695e-07
-7.12456e-07
-2.64448e-06
-2.64277e-06
-1.01228e-06
-4.69896e-06
4.80247e-07
-4.34951e-06
3.94149e-06
8.23119e-07
-3.65953e-06
-4.1109e-06
3.82328e-07
-4.19437e-06
2.4378e-06
4.759e-06
-3.8689e-06
-8.90103e-07
8.12851e-07
3.81929e-06
-3.36807e-06
-1.596e-06
-4.65524e-06
4.65524e-06
4.65739e-06
-4.47882e-06
-1.78567e-07
2.68316e-07
-4.41127e-06
-3.72642e-06
4.21313e-06
-4.86713e-07
-1.47609e-06
6.84618e-07
4.33857e-06
-4.35973e-06
2.11694e-08
4.55848e-06
4.91708e-08
4.60523e-06
5.21578e-08
6.95729e-06
-4.43935e-06
-1.19351e-07
-3.89547e-06
3.19603e-06
4.36865e-06
7.48126e-08
4.5916e-06
-4.56581e-06
-2.57853e-08
-3.99007e-08
-6.34676e-08
4.79586e-07
-3.93748e-06
3.45789e-06
-1.37887e-07
-6.02837e-06
1.44185e-06
3.2381e-07
-4.05023e-06
-4.39138e-06
4.32441e-06
6.6978e-08
4.38145e-06
-3.93182e-07
-2.0459e-06
-2.72168e-06
-6.13926e-06
4.54959e-07
-2.46377e-06
-7.29478e-07
1.9253e-08
4.513e-06
-4.01831e-06
-4.32464e-06
-4.33145e-06
1.12868e-07
4.21858e-06
6.11459e-06
8.65497e-07
3.52519e-06
1.76875e-06
4.26483e-06
-1.89787e-06
4.45344e-06
-2.52892e-07
1.02187e-05
-7.507e-06
-6.99185e-06
-2.24073e-06
-2.41006e-06
-5.66522e-08
4.74868e-06
-4.44914e-06
-2.99541e-07
4.5019e-06
1.03325e-07
5.20509e-07
-4.31412e-06
-3.20146e-06
3.68104e-06
4.36342e-06
3.7982e-08
3.42645e-06
1.51759e-06
4.5781e-06
1.7058e-07
4.57436e-06
-4.50879e-06
-6.55739e-08
-2.06073e-06
-2.91314e-06
-2.06345e-07
4.21205e-06
7.83811e-08
-4.85177e-06
3.79282e-06
-2.98804e-06
-6.39075e-08
9.55434e-08
3.70152e-06
-4.0178e-06
3.16277e-07
6.76434e-07
3.89626e-06
6.20629e-06
-6.03575e-06
2.15935e-06
2.73247e-06
-4.37973e-06
4.32859e-06
5.11405e-08
-1.00788e-07
-2.54681e-06
1.39573e-06
1.15108e-06
-4.5716e-08
4.75847e-06
-4.75847e-06
5.37953e-06
-3.11961e-06
-2.25992e-06
-3.94179e-06
-6.63612e-07
3.32583e-06
1.57638e-06
4.55249e-06
2.56133e-08
-4.29133e-06
4.25771e-06
2.71314e-08
-4.28485e-06
3.48537e-06
4.85177e-06
-4.82005e-06
1.22406e-07
5.66442e-06
-5.01708e-06
4.38584e-06
-4.67023e-06
4.35615e-06
-9.84311e-08
3.93252e-06
-4.25545e-06
4.2331e-06
2.23471e-08
1.98662e-07
3.4153e-06
-3.61396e-06
-3.8716e-06
3.19856e-06
-2.89984e-07
4.04894e-06
5.51732e-07
-3.89286e-08
-3.74533e-06
-6.53563e-07
-5.60945e-06
3.54872e-06
6.52869e-09
-4.2668e-06
-4.54327e-06
-2.15591e-07
6.08454e-06
-3.28555e-06
4.37014e-08
-7.86934e-07
4.83859e-06
-4.05165e-06
-2.06747e-06
-4.79339e-07
4.23858e-06
-4.28406e-06
4.548e-08
-4.38584e-06
4.35047e-06
1.88688e-06
2.69475e-06
-4.58163e-06
4.55932e-06
-8.57796e-07
3.78426e-07
4.04963e-06
4.47097e-06
4.34948e-07
4.88008e-07
5.92985e-07
-4.7577e-06
1.05138e-07
-3.77627e-06
4.29677e-06
-2.18755e-06
2.64251e-06
4.03296e-07
-3.96761e-06
3.56432e-06
-3.23658e-08
8.30644e-08
-3.95709e-06
-4.50219e-06
4.41955e-06
8.26351e-08
-4.3184e-06
4.49502e-07
2.81951e-06
2.56002e-06
-2.43068e-06
4.98275e-06
-2.55207e-06
4.99422e-06
-4.66227e-06
-3.31956e-07
1.24947e-07
3.07361e-06
-4.28566e-06
-4.5789e-08
4.34986e-06
6.2877e-09
2.15037e-06
-7.54643e-07
5.53683e-06
-4.97568e-06
3.96815e-06
6.09754e-07
2.49728e-07
-4.41626e-06
6.70935e-07
6.70485e-08
-3.84331e-06
4.93122e-06
-3.98621e-06
4.02058e-06
-2.44667e-07
-3.82766e-06
4.07232e-06
-4.32885e-06
4.50812e-06
-5.3309e-08
-6.55804e-06
5.24819e-07
-2.79638e-08
4.24662e-06
8.19668e-08
-4.00907e-06
-4.40048e-06
4.38228e-06
1.81997e-08
5.26915e-06
-3.0612e-06
-2.20795e-06
-3.69268e-06
-3.31985e-07
4.02467e-06
-9.87682e-09
-4.35097e-06
9.35658e-08
-4.70823e-07
4.64801e-06
-4.17718e-06
-4.26092e-06
4.28208e-06
-6.18439e-06
-9.0245e-07
-5.98177e-06
5.83181e-06
1.49968e-07
3.41378e-06
1.73401e-06
3.99522e-06
3.58639e-07
-4.35386e-06
4.24619e-06
-1.74379e-07
3.42315e-06
1.70758e-06
-3.03241e-06
9.64936e-07
-4.29231e-06
3.72839e-06
-4.24233e-06
-5.76245e-06
5.74156e-06
2.08902e-08
5.20411e-06
-4.17781e-06
4.24602e-06
-1.29161e-08
2.61131e-07
-3.95985e-06
3.69872e-06
-6.40174e-08
-5.69843e-06
5.14538e-06
-5.14538e-06
-2.34233e-06
4.41474e-06
-2.07241e-06
-4.24908e-06
4.24908e-06
4.34594e-06
-3.84197e-06
-5.0397e-07
4.03925e-06
9.59531e-07
4.52781e-06
-3.71496e-06
4.47781e-06
-4.99841e-08
-3.50473e-06
-5.61318e-07
4.06605e-06
-5.69229e-06
5.71166e-06
-1.93689e-08
5.25402e-06
-3.16308e-06
-2.09093e-06
7.67398e-07
3.76041e-06
-5.75187e-06
5.72306e-06
2.88161e-08
-1.27001e-09
-4.19455e-08
5.67604e-06
-5.63409e-06
-5.73009e-06
5.73009e-06
-6.8154e-08
4.30673e-06
6.1494e-06
-5.73226e-06
-4.17141e-07
-5.75548e-06
5.71353e-06
5.75042e-06
-5.72116e-06
-2.92646e-08
-4.18958e-06
-9.4481e-08
4.90131e-06
-6.54742e-08
5.71232e-06
-5.64685e-06
5.71409e-06
-5.72486e-06
1.07674e-08
-4.31931e-06
5.68434e-06
-8.29777e-09
-4.39548e-06
4.35627e-06
3.92027e-08
-5.68327e-06
5.7038e-06
-2.05272e-08
4.353e-06
-4.24013e-06
-5.74027e-06
5.67479e-06
4.40258e-06
-1.39984e-06
2.09706e-06
2.74153e-06
-3.18259e-06
-2.42687e-06
-5.72036e-06
5.72036e-06
-5.74656e-06
-8.91829e-09
5.31962e-06
-9.75129e-07
-4.34449e-06
-3.74902e-06
2.54724e-06
1.43261e-07
5.69351e-06
-5.71115e-06
1.76471e-08
4.19042e-06
-4.18697e-06
-3.4546e-09
5.87089e-06
-5.71838e-06
-1.52513e-07
5.66385e-06
2.96546e-08
5.65343e-06
5.88915e-08
-1.16679e-08
-4.23741e-06
-5.24383e-06
2.88529e-06
2.35854e-06
-4.23147e-06
4.2586e-06
5.68184e-06
-1.79821e-08
5.96326e-07
3.85712e-06
3.05608e-06
-1.1692e-06
-5.73202e-06
-8.2456e-09
4.67456e-06
2.7739e-06
-4.72617e-06
-7.20285e-07
-5.83775e-06
4.26532e-06
-4.29039e-06
2.50651e-08
-1.97776e-07
-5.784e-06
4.44132e-06
-4.94923e-08
4.93759e-06
-3.37771e-06
-1.55988e-06
-4.27442e-06
5.69052e-06
-5.69052e-06
4.0727e-06
5.35579e-08
-4.12626e-06
4.38295e-06
-5.70248e-06
5.69499e-06
7.48975e-09
5.66209e-06
-5.7167e-06
5.46115e-08
3.60303e-06
-4.76922e-06
-1.52169e-08
-5.66234e-06
5.67756e-06
5.64927e-06
-5.66449e-06
-1.8882e-07
6.02063e-06
-4.52201e-06
4.89892e-06
-5.11991e-06
3.55116e-06
-9.00022e-08
5.83156e-06
4.90287e-07
2.52576e-06
4.88005e-08
5.27082e-06
-1.56798e-08
4.56177e-06
-4.54609e-06
-3.88618e-08
-5.71611e-06
-3.57659e-08
4.69273e-06
-4.70017e-07
-4.22271e-06
-5.67812e-06
5.67812e-06
3.33341e-06
-2.86955e-06
-5.72515e-06
5.71014e-06
1.5015e-08
4.37246e-06
-4.37246e-06
4.25636e-06
-6.59388e-08
5.68588e-06
-5.69501e-06
9.13437e-09
-5.48959e-06
1.50143e-06
5.40428e-09
-4.22346e-06
4.21805e-06
4.58068e-06
-3.8268e-08
5.69776e-06
5.26618e-08
3.45657e-06
5.89867e-07
-4.04643e-06
5.71523e-06
-3.08894e-08
4.44038e-06
-4.44038e-06
5.67891e-06
-5.65915e-06
-1.97648e-08
-4.34281e-06
4.31039e-06
3.24156e-08
5.72229e-06
-5.70495e-06
-1.73351e-08
-5.68755e-06
5.68755e-06
8.48187e-07
3.98268e-06
1.34568e-07
-4.11725e-06
-5.72561e-06
5.7107e-06
1.49123e-08
-2.11839e-08
-4.28774e-06
4.26284e-06
2.48177e-09
5.32153e-06
-1.00507e-06
-4.31646e-06
3.6767e-06
5.66449e-06
-5.68013e-06
1.56429e-08
4.37814e-06
4.67583e-06
6.5916e-08
4.00678e-06
5.80844e-06
-1.10677e-07
5.64584e-06
1.86484e-08
4.155e-06
-4.155e-06
-2.18755e-06
5.74442e-06
-5.69925e-06
-1.74445e-08
5.69636e-06
-5.67492e-06
-2.14408e-08
1.1151e-07
-5.80447e-06
5.69296e-06
5.97015e-07
-5.74239e-06
-5.71526e-06
5.7054e-06
9.86137e-09
4.1263e-06
-4.12383e-06
-2.46618e-09
4.34594e-06
-3.83526e-06
3.83526e-06
5.65732e-06
-1.14773e-08
-4.24159e-06
-3.95985e-06
3.99522e-06
4.40124e-06
-4.58097e-08
-1.28938e-08
4.50952e-07
-5.61858e-06
5.69538e-06
-5.69722e-06
1.8449e-09
1.36045e-07
3.99025e-06
1.31486e-07
4.56124e-06
4.28926e-06
-3.29011e-08
-5.70255e-06
5.6959e-06
6.6499e-09
5.65227e-06
-5.66812e-06
1.58515e-08
-5.69738e-06
-2.7774e-08
5.68195e-06
-5.66699e-06
-1.49599e-08
4.2904e-06
8.20607e-08
5.68542e-06
2.47134e-08
-7.17631e-09
5.67274e-06
2.31668e-08
-8.61601e-10
-4.20265e-06
-5.75917e-06
6.07424e-08
-4.26224e-06
4.26224e-06
5.31823e-08
5.26834e-06
-4.33138e-06
8.26646e-07
2.98874e-08
5.68421e-06
2.37023e-07
-4.09745e-06
3.86042e-06
3.96152e-08
5.69047e-06
5.42912e-06
-5.92108e-06
4.28673e-06
1.5365e-07
5.64927e-06
-4.36535e-08
4.02634e-06
-4.14424e-06
2.04066e-08
4.08375e-06
-6.27181e-07
-5.66339e-06
5.66339e-06
-5.6937e-06
-3.19102e-08
3.84197e-06
-3.98081e-06
1.38834e-07
-5.69047e-06
4.19376e-06
-4.18835e-06
5.68263e-06
2.80683e-08
-5.68525e-06
-5.05724e-06
3.51943e-06
-5.70958e-06
5.70007e-06
9.51616e-09
3.88099e-06
3.65191e-07
4.22346e-06
2.5621e-08
-5.64502e-06
5.68379e-06
-3.87664e-08
-4.28893e-06
4.25091e-06
3.80221e-08
-5.66309e-06
1.80674e-08
4.27131e-06
-8.46929e-09
2.36037e-07
-4.41542e-06
4.17938e-06
5.6618e-06
-5.6869e-06
2.50978e-08
4.60554e-06
-4.82114e-06
5.66117e-06
-5.66055e-06
-6.21006e-10
-3.61714e-06
3.61714e-06
-4.45409e-06
4.45409e-06
-5.65465e-06
-8.43977e-09
-2.64251e-06
3.1328e-06
-5.67086e-06
5.66251e-06
8.34773e-09
4.43033e-08
5.67606e-06
3.53609e-06
-3.1328e-06
-3.53609e-06
3.73476e-06
3.75374e-06
-4.31506e-06
5.17978e-06
-3.06884e-06
-2.11094e-06
-5.69114e-06
-2.41197e-08
-8.19763e-07
-3.73476e-06
4.55452e-06
5.684e-06
2.13984e-08
-4.30655e-06
3.99076e-06
5.70034e-06
-5.68882e-06
-1.15262e-08
-5.66685e-06
-4.26799e-06
4.28797e-06
-1.3297e-07
-1.51982e-08
5.69703e-06
5.67311e-06
-4.21805e-06
-5.80838e-06
-3.40878e-06
4.35386e-06
-9.45085e-07
-5.64191e-06
-2.04334e-08
5.66581e-06
6.92325e-09
3.30413e-06
-3.37569e-06
7.15642e-08
6.51702e-09
3.98081e-06
-4.14104e-06
1.60237e-07
2.61448e-06
2.65467e-06
-5.68858e-06
-2.10021e-08
-4.3089e-06
5.6409e-06
-5.63618e-06
-4.72048e-09
5.68176e-06
1.83036e-08
-5.69823e-06
5.69211e-06
6.12895e-09
4.35598e-06
4.2904e-06
-5.65538e-06
5.64298e-06
1.2399e-08
5.69529e-06
-5.69277e-06
-2.5167e-09
-4.23575e-06
4.28673e-06
5.65271e-06
-5.65271e-06
2.2533e-08
5.70052e-06
-3.5692e-06
-7.62172e-07
5.66454e-06
-2.74074e-09
-7.27647e-07
3.86902e-06
-3.14137e-06
5.65003e-06
-5.64514e-06
-4.88992e-09
1.73086e-08
5.67321e-06
5.63975e-06
-5.64478e-06
5.03083e-09
-5.70571e-06
-5.68517e-06
-3.4244e-06
4.91026e-09
5.69008e-06
-5.99869e-09
-5.66992e-06
5.67592e-06
-5.65308e-06
5.64073e-06
1.23495e-08
-5.68835e-06
-9.88848e-09
-4.30589e-06
-4.15866e-06
1.44226e-08
5.68253e-06
9.57705e-09
-5.64795e-06
5.64556e-06
2.38671e-09
-5.65182e-06
2.12725e-08
5.63055e-06
5.68666e-06
1.36867e-08
-5.66905e-06
-1.97654e-08
-4.13541e-06
-1.95927e-08
5.68387e-06
-5.68736e-06
3.49245e-09
5.65025e-06
-5.65625e-06
-5.66178e-06
5.65397e-06
7.81346e-09
5.64767e-06
-5.6431e-06
-4.57485e-09
4.25854e-06
3.6992e-09
5.68574e-06
9.54852e-09
-5.6778e-06
-1.49759e-08
-5.69863e-06
4.28797e-06
-5.65071e-06
5.63943e-06
1.12763e-08
3.75066e-06
-3.99533e-06
-5.63477e-06
5.65591e-06
-2.11465e-08
5.65225e-06
-5.66069e-06
8.44231e-09
-1.38307e-08
-5.68288e-06
-5.46979e-09
-1.47438e-08
-5.01698e-06
3.55915e-06
-9.70128e-09
5.65025e-06
-9.37836e-09
-6.05166e-09
-5.68766e-06
4.78421e-09
2.17557e-06
4.77788e-06
-6.95345e-06
-1.17723e-06
5.68389e-06
-2.20749e-11
-5.67321e-06
1.04938e-08
5.66762e-06
-5.67661e-06
-1.07558e-08
-4.27258e-06
-5.69332e-06
5.65691e-09
1.99225e-08
5.66596e-06
-8.79638e-10
2.69371e-08
-5.59702e-06
5.57009e-06
5.69174e-06
-5.68885e-06
-2.89609e-09
-4.34895e-06
7.79743e-07
5.68078e-06
-5.67084e-06
-9.94563e-09
-5.68452e-06
-4.21512e-06
-2.22254e-07
5.64648e-06
-5.64201e-06
-4.46432e-09
2.9688e-08
-5.60234e-06
5.57265e-06
-5.69032e-06
5.67972e-06
1.06015e-08
-4.30243e-06
4.26678e-06
3.56414e-08
4.98222e-09
-5.69026e-06
-3.06158e-09
-4.32706e-06
8.97769e-07
3.42929e-06
-5.68284e-06
-7.47734e-09
5.68986e-06
1.88161e-09
-5.68055e-06
-8.30101e-09
-2.26518e-08
-5.69064e-06
3.79676e-10
-4.09222e-06
-4.76342e-07
4.56856e-06
3.27055e-06
2.39032e-08
-5.66762e-06
4.26773e-06
-1.68245e-08
-5.6462e-06
5.6462e-06
-1.09193e-08
5.68714e-06
2.72239e-09
-4.50958e-09
8.86118e-09
9.134e-09
5.68929e-06
-2.14973e-09
3.34674e-09
5.6878e-06
-5.68785e-06
5.18771e-11
4.10528e-06
-4.10528e-06
-5.67606e-06
5.66386e-06
1.22026e-08
5.65565e-06
-5.64985e-06
-5.797e-09
-7.98635e-09
5.68573e-06
3.55528e-09
5.686e-06
1.80103e-09
-2.12138e-09
5.68652e-06
5.68101e-06
-5.68415e-06
3.13757e-09
-5.73584e-06
-5.66285e-06
-1.32129e-08
4.37804e-06
-5.36339e-08
5.67593e-06
5.07577e-09
4.75632e-08
5.68024e-06
-5.67402e-06
-6.22221e-09
-4.05718e-06
4.05718e-06
3.18461e-08
5.6557e-06
-5.64526e-06
5.65433e-06
-9.07501e-09
5.67904e-06
1.20044e-09
4.30681e-08
4.24619e-06
5.67232e-06
-5.67017e-06
-2.15146e-09
-5.62757e-06
-1.76845e-08
5.65633e-06
-5.66096e-06
4.62702e-09
5.66865e-06
3.67013e-09
5.67913e-06
6.87341e-09
-5.62867e-08
-5.61363e-06
-9.10424e-09
-5.00298e-07
-3.81382e-06
5.64742e-06
-5.65289e-06
5.47673e-09
1.69077e-07
3.9362e-06
5.6716e-06
-5.66627e-06
-5.32397e-09
-5.01969e-09
-9.7213e-08
-4.71688e-06
4.81409e-06
-4.1081e-06
4.15492e-06
-4.68182e-08
-5.62091e-06
5.62272e-06
-1.80996e-09
5.66505e-06
6.54698e-09
-5.64829e-06
-3.53047e-06
5.70604e-06
5.66728e-06
-5.65923e-06
-8.05437e-09
-5.67277e-06
5.67291e-06
-1.41971e-10
5.6565e-06
-5.65138e-06
-5.12264e-09
-5.50177e-07
-4.8517e-06
5.40187e-06
5.66145e-06
5.82936e-09
-5.62523e-06
4.32068e-09
5.6681e-06
-5.66084e-06
-7.25747e-09
4.25854e-06
-4.36134e-06
4.36134e-06
5.66599e-06
-5.65532e-06
-1.06718e-08
-1.09555e-08
5.66828e-06
-8.91274e-09
-4.26444e-06
5.65799e-06
7.99941e-09
-5.67225e-06
-1.05951e-08
-5.61658e-06
5.61958e-06
-2.99378e-09
5.67285e-06
3.08204e-09
9.59055e-08
5.61575e-06
-1.16508e-09
5.66756e-06
1.43839e-08
4.2451e-06
2.26348e-08
6.65534e-10
-5.62215e-06
5.5627e-09
4.3289e-07
1.5742e-08
1.82874e-07
5.65121e-06
-5.65651e-06
5.2977e-09
-5.61063e-06
5.61716e-06
-6.53515e-09
1.00787e-07
-4.25128e-06
4.15049e-06
7.59908e-07
-4.42818e-06
3.66827e-06
1.6229e-06
4.01504e-06
-4.01504e-06
5.6473e-06
-5.6473e-06
-4.64807e-06
2.59455e-09
-5.65798e-06
4.33376e-06
5.66629e-06
1.27489e-08
-1.06846e-06
-1.98738e-06
3.05584e-06
-5.61883e-06
8.20157e-09
-5.62196e-06
-1.82509e-07
2.40261e-06
-3.9642e-06
1.56159e-06
-3.87495e-09
3.8418e-08
5.6175e-06
1.4504e-08
4.25681e-06
-5.67435e-06
1.19428e-08
5.65145e-06
3.60513e-06
-4.39889e-06
7.93765e-07
3.66829e-06
-1.26568e-06
-7.06784e-09
-5.64601e-06
5.67519e-06
-5.63677e-06
-5.65892e-06
-5.60322e-06
5.5979e-06
5.32134e-09
1.2606e-09
5.66125e-06
5.64143e-06
5.86619e-09
5.155e-06
-3.42151e-06
-1.73349e-06
-1.98141e-08
4.30655e-06
5.6597e-06
8.94982e-09
5.15309e-06
-5.70327e-06
3.83039e-08
5.61734e-06
-6.6771e-09
-5.64403e-06
-5.60978e-06
6.5665e-09
-4.12057e-06
1.24712e-08
4.32975e-06
-3.47165e-06
-8.58097e-07
5.63136e-06
-5.63184e-06
4.83621e-10
-6.57639e-09
1.62516e-06
-2.28407e-06
-2.13962e-06
4.42369e-06
5.64186e-06
-5.65054e-06
8.67823e-09
4.49379e-06
-4.44023e-06
-1.54889e-08
4.30589e-06
-3.69758e-06
2.62912e-06
5.63617e-06
-5.64183e-06
5.66186e-09
5.66858e-06
-5.63028e-06
-4.24638e-06
1.41102e-07
-4.26274e-06
4.25734e-06
5.40542e-09
4.14104e-06
-4.23826e-06
8.99051e-08
5.61389e-06
-4.30143e-06
4.17118e-06
-1.51964e-07
5.65979e-06
-5.65293e-06
-6.8594e-09
4.40666e-06
-4.20915e-06
-1.97511e-07
5.64143e-06
-3.4082e-09
-5.64454e-06
-4.17239e-06
1.37302e-08
5.23225e-07
3.20514e-06
-3.72836e-06
-5.59606e-06
5.58999e-06
6.073e-09
5.63251e-06
1.97393e-08
-3.56704e-06
-7.48016e-07
4.10302e-08
5.61547e-06
5.65041e-06
-5.66361e-06
1.32043e-08
5.64349e-06
-1.04213e-08
-5.62575e-06
-4.41181e-06
-7.4382e-07
5.65331e-06
1.17451e-08
6.01083e-06
-1.23295e-06
-3.42717e-08
5.64772e-06
-5.61345e-06
5.64519e-06
5.22311e-09
-5.60404e-06
7.98132e-09
-5.62025e-06
-4.02958e-08
-1.07729e-08
5.57224e-06
-5.56146e-06
7.3362e-09
5.64537e-06
5.66933e-06
-5.6283e-06
-5.65145e-06
-2.09291e-08
4.3089e-06
-5.92132e-09
4.27376e-06
-2.20245e-07
-4.05352e-06
5.75854e-08
4.21618e-06
-5.5802e-06
5.56942e-06
-5.65061e-06
-1.22355e-08
3.58702e-06
7.4273e-07
-2.13949e-08
4.37047e-06
-4.34908e-06
-3.62093e-06
-3.02861e-06
3.55184e-06
-4.72297e-06
5.84246e-07
4.13873e-06
5.64296e-06
4.3102e-09
-5.64945e-06
5.6122e-08
5.61907e-06
5.6345e-06
-5.63534e-06
8.34119e-10
5.64682e-06
-5.63001e-06
-1.68116e-08
-5.65445e-06
3.72234e-09
-8.14124e-09
-4.26681e-06
4.27495e-06
8.28598e-10
5.65314e-06
-3.92206e-06
1.1482e-06
-5.64706e-06
5.64389e-06
3.171e-09
-5.5882e-06
5.58153e-06
6.66346e-09
5.51915e-08
4.61798e-06
-4.48341e-06
3.38544e-06
-8.1319e-08
-2.93577e-08
5.65088e-06
-5.62153e-06
-5.0386e-06
2.75453e-06
5.64099e-06
4.99612e-09
-5.64809e-06
5.64687e-06
1.45856e-08
-5.27762e-06
5.28422e-08
5.22478e-06
8.84722e-09
-5.59704e-06
5.63571e-06
-5.62979e-06
-5.92223e-09
-1.78716e-07
5.66905e-06
-5.49033e-06
-8.45034e-09
-1.15913e-06
5.30529e-06
-4.14616e-06
-4.24638e-06
-4.70696e-06
5.63927e-06
-3.09939e-09
4.9542e-08
5.61904e-06
5.49832e-06
5.69257e-06
-5.68832e-06
-4.25409e-09
1.80572e-10
-4.27394e-06
4.27376e-06
-5.64252e-06
5.63868e-06
3.83193e-09
1.14007e-07
-4.24941e-06
4.13541e-06
5.64997e-06
-5.64763e-06
-2.34801e-09
-4.37469e-06
4.3533e-06
5.63336e-06
-5.62902e-06
-4.33922e-09
1.581e-08
5.63101e-06
-6.19579e-08
5.66334e-06
-5.64612e-06
5.80941e-08
-4.16448e-06
5.64584e-06
-5.64487e-06
-9.74301e-10
5.64307e-06
3.29598e-09
-5.64531e-06
5.61418e-06
1.19153e-08
-5.62609e-06
1.34704e-09
5.64656e-06
-5.63075e-06
-1.34394e-08
-4.2757e-06
4.28914e-06
3.03205e-06
-4.4613e-06
1.42924e-06
-9.49732e-07
-4.32789e-06
-4.14607e-06
-9.32144e-07
-3.63898e-06
-5.63963e-06
3.25324e-08
5.6071e-06
-4.30175e-06
4.2757e-06
2.60463e-08
-1.30913e-06
-3.46009e-06
-5.6367e-06
5.03201e-06
-5.62504e-06
5.63496e-06
-9.91376e-09
-4.70116e-06
4.67144e-07
4.23401e-06
4.48847e-06
-3.44903e-06
-1.03944e-06
-5.64476e-06
1.1324e-08
5.63344e-06
4.28268e-06
-4.22913e-06
1.18136e-08
5.6239e-06
-5.64537e-06
5.73632e-09
5.64047e-06
5.63964e-06
1.83506e-08
-9.37829e-10
-5.64384e-06
-1.82744e-08
-5.62879e-06
-5.6307e-06
4.27765e-06
-4.22481e-06
-2.39747e-08
1.20581e-06
3.73179e-06
-3.86255e-06
3.86255e-06
4.89945e-08
5.62033e-06
-6.39819e-06
-5.20527e-06
5.20545e-06
5.64729e-06
4.27454e-06
-4.24364e-06
-5.63862e-06
5.62035e-06
-4.766e-06
4.88001e-06
5.63468e-06
-5.62976e-06
-4.92304e-09
6.82906e-09
5.64059e-06
-5.70651e-06
4.29381e-06
-4.30725e-06
-5.63702e-06
9.44748e-09
2.12309e-06
5.65083e-06
-5.64397e-06
-6.86421e-09
-5.64716e-06
5.63496e-06
-5.63026e-06
-4.69974e-09
-5.634e-06
-5.6251e-09
5.62206e-06
-5.60483e-06
-4.31034e-06
5.18117e-06
5.63009e-06
-5.62825e-06
-1.8446e-09
-9.93829e-09
5.62412e-06
-4.30175e-06
3.72839e-06
-4.04066e-06
3.12263e-07
-6.93622e-06
6.93622e-06
5.64462e-06
5.64572e-06
-1.43006e-08
9.45942e-09
-5.64411e-06
5.66372e-06
-1.96107e-08
5.63325e-06
-5.62854e-06
-4.71488e-09
-4.67456e-06
4.4523e-06
1.74007e-08
5.63032e-06
-5.64469e-06
1.52438e-08
5.62944e-06
-5.62816e-06
5.64032e-06
-5.63277e-06
-4.32271e-06
-5.64001e-06
1.88386e-08
5.62117e-06
-4.32898e-06
-1.21779e-08
4.22475e-06
-4.25672e-06
3.19639e-08
5.62586e-06
-5.6306e-06
4.74196e-09
1.0418e-07
-5.63992e-06
5.63057e-06
9.35203e-09
5.63629e-06
-4.13274e-06
-4.10372e-06
-6.86723e-08
5.64358e-06
-5.64358e-06
-2.88147e-08
4.28736e-06
-5.64047e-06
5.6322e-06
-5.6275e-06
-4.70478e-09
5.64273e-06
-3.14428e-08
-5.63555e-06
-4.19549e-06
-5.21386e-07
-4.30196e-06
3.37118e-06
-3.76544e-06
3.94258e-07
-8.44165e-07
-3.64103e-06
4.48519e-06
5.62185e-06
-5.60697e-06
3.64431e-06
-4.25128e-06
-1.21505e-08
-5.63261e-06
5.63523e-06
-5.63056e-06
-4.67455e-09
4.3293e-06
-4.35085e-06
-1.19054e-06
-7.86393e-07
1.97693e-06
-4.49087e-06
4.52859e-06
4.34494e-06
-4.28736e-06
-1.70004e-08
-4.2135e-06
4.2305e-06
-2.02051e-08
-4.18124e-06
4.20145e-06
1.41248e-08
-4.3816e-06
4.36747e-06
4.00856e-08
-4.39923e-06
4.35915e-06
2.02703e-08
-4.31074e-06
4.29047e-06
-8.29881e-09
-4.21901e-06
4.22731e-06
-9.57016e-09
-4.21548e-06
4.22505e-06
2.53749e-06
-1.70979e-06
-8.27692e-07
3.74269e-06
2.7477e-08
5.62341e-06
4.12586e-06
-4.14959e-06
2.37361e-08
1.32513e-08
-5.63301e-06
5.61976e-06
5.64759e-06
-5.64759e-06
5.5728e-06
-1.32545e-09
-5.57147e-06
-1.87804e-08
-5.61984e-06
5.63179e-06
-5.62688e-06
-4.90436e-09
-3.50042e-06
-4.59604e-06
-1.05114e-07
3.69058e-06
7.16077e-07
5.64308e-06
-5.63549e-06
-7.59581e-09
-4.29553e-06
4.46364e-06
1.86946e-08
5.62787e-06
-3.09618e-06
-1.94242e-06
4.18819e-08
4.04324e-06
-4.08512e-06
-2.88708e-06
-4.88609e-07
-9.68699e-07
-5.99814e-07
1.56851e-06
4.23705e-06
4.23772e-06
4.42285e-06
4.42304e-06
4.39227e-06
4.33577e-06
-1.97631e-08
-4.24835e-06
4.26811e-06
4.2508e-06
-5.70559e-09
-1.67428e-06
5.6336e-06
-5.62035e-06
-1.39191e-07
4.53134e-06
-5.65066e-06
-3.85762e-06
4.76929e-06
5.56539e-06
4.80416e-09
-5.57019e-06
5.65501e-06
-1.14306e-08
-5.64285e-06
2.02449e-08
5.6226e-06
-4.25583e-06
-4.26681e-06
4.26612e-06
-4.28588e-06
-3.88285e-06
4.69041e-06
-8.07564e-07
-1.00789e-08
-5.62993e-06
2.94179e-06
-3.66943e-06
9.30193e-09
-5.63909e-06
-5.63245e-06
-1.4983e-06
-2.19928e-06
-5.62236e-06
-1.0648e-08
4.31676e-06
1.34695e-06
3.28251e-06
5.62633e-06
-5.62199e-06
-4.33566e-09
4.289e-06
-2.84062e-06
-1.44838e-06
-2.04218e-06
1.07348e-06
-2.36697e-06
5.1215e-06
-2.05239e-06
4.26655e-06
-2.21416e-06
1.75855e-09
5.6401e-06
-5.60154e-06
5.63024e-06
-5.63353e-06
3.28688e-09
-3.18893e-06
1.36011e-06
1.82882e-06
-1.88232e-08
-4.24712e-06
4.26594e-06
5.89744e-06
-2.61109e-06
-3.28634e-06
4.18779e-09
5.56861e-06
-1.22575e-06
-1.96318e-06
-4.11475e-06
4.15663e-06
3.5102e-06
2.32493e-07
-4.09469e-06
-8.66071e-09
-4.25302e-06
4.26168e-06
4.39342e-06
-4.25737e-06
-2.61592e-06
-9.91655e-07
3.60758e-06
-5.62165e-06
5.62328e-06
-1.62941e-09
-4.15681e-06
4.21491e-06
5.62788e-06
-5.63153e-06
-3.76256e-06
-9.9985e-08
-5.66971e-06
5.64827e-06
-2.93554e-06
4.25044e-09
5.63071e-06
4.91133e-06
-2.71435e-06
-2.19698e-06
4.1576e-06
-7.86417e-07
4.64433e-06
-6.0109e-07
4.25935e-06
-4.27817e-06
5.62021e-06
-5.62047e-06
2.60306e-10
4.26406e-06
-4.27272e-06
5.16863e-09
-5.61733e-06
5.61216e-06
-2.3696e-06
-5.65936e-07
1.04944e-08
-4.32084e-06
-5.63319e-06