/*--------------------------------*- C++ -*----------------------------------*\
  =========                 |
  \\      /  F ield         | OpenFOAM: The Open Source CFD Toolbox
   \\    /   O peration     | Website:  https://openfoam.org
    \\  /    A nd           | Version:  12
     \\/     M anipulation  |
\*---------------------------------------------------------------------------*/
FoamFile
{
    format      ascii;
    class       surfaceScalarField;
    location    "0.23";
    object      phi;
}
// * * * * * * * * * * * * * * * * * * * * * * * * * * * * * * * * * * * * * //

dimensions      [0 3 -1 0 0 0 0];

internalField   nonuniform List<scalar> 
6438
(
-3.73322e-08
4.66635e-06
-4.62901e-06
-4.03838e-08
5.42106e-06
-5.38068e-06
-5.08619e-06
-8.65951e-07
5.95214e-06
4.82483e-06
-5.29716e-06
4.72326e-07
7.41139e-06
-5.79088e-06
-1.62051e-06
1.67523e-06
5.73616e-06
-5.784e-06
6.97815e-07
-5.01046e-06
4.97008e-06
5.41728e-06
-6.46496e-06
1.04767e-06
5.03083e-06
-5.90189e-06
8.71061e-07
-4.86455e-06
5.92157e-06
-1.05702e-06
1.1669e-06
-5.32968e-06
4.16278e-06
-6.02978e-06
1.16522e-06
4.62326e-06
2.12326e-06
-6.74652e-06
4.34517e-06
-4.3825e-06
-2.45769e-07
5.09233e-06
-4.84656e-06
-6.41585e-06
6.22304e-06
1.92811e-07
-4.85765e-06
5.90228e-06
-1.04463e-06
-6.02871e-06
1.17106e-06
1.91355e-06
4.0409e-06
-5.95445e-06
-1.39306e-06
-9.09798e-07
2.30286e-06
-2.95964e-07
5.3326e-06
-5.03663e-06
-4.94833e-06
-8.01273e-07
5.74961e-06
-6.06007e-06
2.65619e-06
3.40388e-06
-5.25309e-06
4.95713e-06
-4.66521e-06
5.67098e-06
-1.00577e-06
-5.71119e-06
7.62855e-07
5.40646e-06
-4.23956e-06
-4.91146e-06
-9.23392e-07
5.83485e-06
-5.9454e-06
1.28019e-06
4.54559e-06
-5.72077e-06
1.17518e-06
2.50501e-08
-5.56785e-06
5.5428e-06
5.44951e-06
-5.48377e-06
3.42637e-08
-5.39958e-06
9.06185e-07
4.4934e-06
-7.28962e-06
1.18093e-06
6.10869e-06
5.12712e-06
-5.10207e-06
5.17439e-06
-3.49556e-07
3.35666e-06
4.7028e-06
-8.05946e-06
-1.66762e-06
6.29088e-06
-4.81472e-06
5.29099e-06
-4.76266e-07
-5.57932e-06
5.5291e-06
5.02227e-08
-2.31508e-06
4.22863e-06
4.98759e-06
4.32411e-08
-5.9965e-06
5.874e-06
1.22496e-07
5.36665e-06
-8.21059e-07
-4.04423e-06
3.79846e-06
-6.97199e-06
1.18112e-06
5.30228e-06
5.09582e-07
-5.81186e-06
-4.11302e-06
-1.28656e-06
-7.5779e-07
-4.95885e-06
5.62695e-06
-6.68093e-07
-3.6845e-06
5.3228e-06
-1.6383e-06
5.34901e-06
-5.34901e-06
1.68215e-06
4.05646e-06
5.33276e-07
-4.58973e-06
2.3808e-06
1.15978e-06
-3.54058e-06
4.52833e-06
9.57339e-07
-5.48567e-06
4.37425e-06
-1.71806e-06
-2.53595e-06
-4.43604e-06
-5.28426e-08
4.71616e-06
-4.66332e-06
-5.81579e-06
5.81579e-06
-6.02639e-06
6.08957e-06
-6.31777e-08
2.44164e-07
4.47766e-06
-4.72183e-06
1.65783e-08
-5.48744e-06
5.47087e-06
5.0928e-06
-5.07622e-06
-5.55337e-06
6.41913e-07
-5.56718e-06
-4.29318e-07
-4.78912e-06
5.26536e-06
-4.76241e-07
5.29691e-07
4.58531e-06
-5.115e-06
-5.63193e-06
5.41589e-06
2.16033e-07
5.48931e-06
-5.48931e-06
5.09963e-06
3.17651e-07
-3.35142e-06
-2.55046e-06
4.78163e-06
1.00788e-06
-5.78951e-06
-4.68951e-06
-8.89812e-07
4.16658e-06
3.21807e-06
-7.38465e-06
-6.45093e-06
4.13585e-06
-4.11431e-06
-2.33662e-06
5.68762e-06
-9.05992e-07
3.38712e-06
-1.00633e-06
4.60188e-06
5.28005e-07
-5.12989e-06
-5.67502e-06
-3.51376e-07
-8.01353e-07
-1.38283e-06
-4.43296e-06
6.15301e-06
-6.15301e-06
-4.06556e-06
-1.56637e-06
-3.68259e-07
-6.92136e-06
-5.30896e-06
5.28751e-06
2.14491e-08
1.91214e-07
-5.37579e-06
5.18458e-06
-5.90821e-07
5.1927e-06
5.31356e-06
1.3595e-07
-5.55069e-06
-8.65164e-07
-5.60635e-06
5.75016e-06
-1.43811e-07
5.84683e-06
-3.27275e-06
-2.57408e-06
5.24849e-06
-5.05728e-06
1.06935e-07
5.88321e-06
-2.99402e-06
-2.88919e-06
3.34805e-06
2.49878e-06
5.40177e-06
-5.40177e-06
-4.14294e-06
5.94436e-06
-1.80142e-06
-5.20754e-06
2.48686e-07
-7.11743e-07
-4.21845e-06
4.93019e-06
-4.88021e-06
1.90704e-07
-5.23051e-06
1.08757e-06
4.51373e-06
9.97344e-07
-5.51107e-06
-3.11777e-07
4.8255e-06
-4.71346e-06
5.44608e-06
-7.32615e-07
-5.00868e-06
1.93958e-07
3.44935e-06
2.43387e-06
5.21457e-06
-1.05179e-06
2.23971e-07
5.12504e-06
-4.50152e-06
-3.78692e-07
4.70714e-06
1.00156e-06
-5.7087e-06
-2.60168e-06
-2.24549e-06
4.84717e-06
3.42614e-06
-4.30603e-07
-2.99554e-06
-5.56785e-06
1.12899e-06
5.58433e-06
-6.71331e-06
-2.58789e-06
1.19483e-06
5.57023e-06
1.00754e-07
6.03493e-06
-3.12364e-06
-2.91128e-06
2.02055e-06
4.01437e-06
5.63912e-06
-9.31976e-07
6.87715e-06
-3.52049e-06
-5.09578e-06
1.33202e-08
5.08246e-06
-7.28721e-06
7.45721e-07
6.54149e-06
-8.33491e-08
-5.05822e-06
5.14157e-06
5.56465e-06
3.09349e-07
-4.29135e-06
4.23851e-06
-5.12067e-06
5.22375e-06
-1.03078e-07
5.18495e-06
-5.2683e-06
5.3497e-06
-5.3497e-06
5.27006e-06
1.51002e-07
5.28013e-06
-1.22368e-06
5.20917e-06
-4.96501e-06
-4.58821e-06
3.87647e-06
4.69986e-08
5.0558e-06
-5.1028e-06
5.94228e-06
-4.16488e-06
-1.77741e-06
-5.48744e-06
-7.85425e-08
6.14162e-08
-5.07188e-06
-5.08399e-06
2.94866e-07
5.86667e-08
5.06845e-06
4.90494e-06
-4.37525e-06
-5.05854e-06
3.45077e-07
5.1327e-06
-1.45118e-07
-1.83049e-07
4.46624e-06
-4.28319e-06
3.51211e-06
2.43017e-06
-5.26083e-06
1.12859e-06
4.13224e-06
5.36113e-06
-3.83271e-08
-7.09092e-06
6.46349e-07
6.44457e-06
-7.15776e-08
-5.03153e-06
5.10311e-06
3.3447e-06
8.14439e-08
3.19312e-07
5.04181e-06
4.99064e-06
4.15821e-07
5.15453e-06
-5.22611e-06
-5.37155e-06
-1.79139e-07
5.47849e-06
-5.88505e-06
4.06558e-07
-4.89935e-06
-1.9643e-07
-5.9622e-06
2.585e-06
3.3772e-06
3.04955e-09
5.15506e-06
1.77542e-07
-4.85103e-06
5.64096e-06
-7.89936e-07
-5.35006e-06
4.60683e-06
7.43237e-07
-7.23107e-07
1.86873e-06
-1.14562e-06
-1.67616e-06
-4.26924e-06
-5.37579e-06
-4.24179e-08
5.13522e-06
1.57275e-06
4.37161e-06
-8.5674e-08
-5.22851e-06
-2.45848e-08
-1.10361e-07
-5.71679e-06
4.83129e-06
8.85507e-07
-3.36289e-07
4.25955e-06
8.40082e-07
8.35699e-06
-3.6542e-06
-1.76857e-06
-4.26014e-06
5.24223e-06
7.13275e-08
-4.50183e-06
1.90014e-06
-2.01963e-06
-3.19035e-06
5.20998e-06
-1.8038e-06
-4.22597e-06
-2.93608e-06
7.10266e-06
-5.40472e-06
1.76215e-07
-5.10312e-06
5.12271e-06
-1.95936e-08
-4.21788e-06
4.03483e-06
-6.13338e-08
-5.00155e-06
5.06288e-06
-5.49837e-06
9.36476e-08
4.58641e-06
-5.45719e-06
8.70773e-07
5.10965e-06
-5.17098e-06
4.56651e-06
-1.72921e-06
-2.8373e-06
-6.90583e-06
2.445e-06
4.46082e-06
4.68291e-06
4.49795e-07
3.86821e-06
2.35484e-06
1.13072e-06
5.02229e-06
-1.3408e-06
-4.8122e-06
-5.56366e-06
5.51458e-06
4.90794e-08
-5.54871e-06
-1.49509e-08
-5.52012e-06
-2.8589e-08
1.62148e-08
1.43578e-06
-8.03923e-06
6.60346e-06
-5.97163e-06
7.10062e-06
4.71545e-06
-4.66845e-06
5.03813e-06
2.10363e-07
4.10996e-07
4.15552e-06
-5.05822e-06
-4.58607e-06
4.56423e-06
5.69444e-07
-5.13368e-06
-2.60886e-08
-1.08821e-06
8.02682e-06
-6.93861e-06
7.61452e-06
-5.49125e-06
-2.30934e-06
3.46912e-06
-1.46408e-06
-4.49811e-06
-3.9969e-06
-2.90892e-06
-5.05709e-06
-3.14457e-07
-5.09225e-06
5.09151e-06
7.38732e-10
-8.04969e-07
4.78141e-06
-3.97644e-06
-5.46596e-06
5.50448e-06
-3.85237e-08
-5.40889e-06
-5.70685e-08
-6.95258e-06
4.32811e-07
6.51977e-06
-4.85983e-06
-3.15264e-07
5.1751e-06
5.44572e-06
5.87591e-08
-9.68065e-07
-5.95116e-06
2.16768e-06
3.78348e-06
3.43828e-08
-3.1513e-06
-2.79986e-06
-7.43971e-08
-5.55193e-08
-4.97327e-06
5.02879e-06
-5.1148e-06
2.54966e-07
4.62244e-06
6.1979e-07
5.32737e-06
-5.1034e-06
5.06164e-06
-5.11715e-06
5.03977e-06
1.45179e-07
2.47698e-06
5.13753e-06
5.26177e-06
-1.00222e-06
-4.13102e-07
-6.87411e-06
-3.01342e-07
4.15443e-06
-3.85309e-06
-5.3831e-06
-2.57938e-08
-5.38233e-06
-7.64435e-10
5.42568e-06
-5.38695e-06
-3.87258e-08
5.36647e-06
5.92089e-08
-5.03153e-06
1.24252e-06
-1.70656e-06
4.6404e-07
-6.07766e-06
3.55575e-06
2.52192e-06
2.72244e-06
-5.45781e-06
2.73537e-06
-4.76428e-06
-4.43256e-07
-5.07526e-06
5.05012e-06
2.51408e-08
-5.28051e-06
5.09276e-06
1.87752e-07
-4.21646e-07
5.40385e-06
-4.98221e-06
-5.24278e-06
1.27984e-07
-5.82104e-06
7.25682e-06
-5.40766e-07
-4.72006e-06
-5.4727e-06
5.05106e-06
-4.2882e-06
-3.94763e-07
4.68296e-06
-4.01995e-06
5.33184e-06
3.4631e-08
-3.65277e-06
-9.77375e-07
1.08369e-06
-1.06311e-07
-5.04969e-08
1.95829e-07
-6.94467e-06
6.74884e-06
-3.89352e-06
-1.89048e-06
-5.40818e-06
5.29736e-06
1.10819e-07
-5.32515e-06
-8.30274e-08
-1.91528e-06
1.19217e-06
5.03065e-06
1.23888e-07
5.37271e-06
-8.95045e-07
5.31993e-06
-5.31368e-06
-6.25128e-09
-1.43697e-08
-4.9351e-06
4.94947e-06
5.56837e-06
-3.99562e-06
-6.702e-08
5.52431e-06
3.11723e-06
-8.64153e-06
5.47399e-06
-5.47399e-06
8.46096e-07
4.9697e-06
-1.93166e-06
-3.41735e-06
-4.36293e-06
5.25847e-06
-8.95539e-07
-5.82307e-07
-4.6982e-06
5.03614e-06
-5.05051e-06
-4.82262e-06
8.21284e-08
4.74049e-06
9.25571e-07
-4.88799e-06
3.96242e-06
-5.0608e-06
5.00859e-06
5.22031e-08
3.23257e-06
2.3358e-06
-1.58244e-07
-8.19131e-07
-3.03926e-06
-3.0384e-06
-1.1622e-06
-5.40289e-06
5.51861e-07
-5.00155e-06
4.5322e-06
9.46286e-07
-4.20981e-06
-4.72746e-06
4.39265e-07
-4.82368e-06
2.80404e-06
5.47289e-06
-4.44943e-06
-1.02346e-06
9.35091e-07
4.39228e-06
-3.87521e-06
-1.83597e-06
-5.35402e-06
5.35402e-06
5.35563e-06
-5.14999e-06
-2.05646e-07
3.08781e-07
-5.07307e-06
-4.28492e-06
4.8443e-06
-5.59377e-07
-1.6979e-06
7.88103e-07
4.98945e-06
-5.01377e-06
2.43148e-08
5.24072e-06
5.66446e-08
5.29544e-06
6.01959e-08
8.00129e-06
-5.10553e-06
-1.37251e-07
-4.47977e-06
3.6748e-06
5.02381e-06
8.58372e-08
5.27952e-06
-5.24958e-06
-2.99398e-08
-4.56357e-08
-7.29631e-08
5.51185e-07
-4.52715e-06
3.97596e-06
-1.58921e-07
-6.932e-06
1.65792e-06
3.73327e-07
-4.65825e-06
-5.05003e-06
4.97305e-06
7.69825e-08
5.03892e-06
-4.52509e-07
-2.35345e-06
-3.13032e-06
-7.05984e-06
5.23283e-07
-2.83263e-06
-8.38657e-07
2.16776e-08
5.19055e-06
-4.6211e-06
-4.97327e-06
-4.98124e-06
1.29739e-07
4.8515e-06
7.03217e-06
9.94655e-07
4.05338e-06
2.03618e-06
4.9045e-06
-2.18205e-06
5.12207e-06
-2.9078e-07
1.17492e-05
-8.63194e-06
-8.03923e-06
-2.57624e-06
-2.77383e-06
-6.49887e-08
5.46071e-06
-5.11613e-06
-3.44576e-07
5.1763e-06
1.19141e-07
5.98655e-07
-4.96159e-06
-3.68177e-06
4.23295e-06
5.01803e-06
4.36003e-08
3.9413e-06
1.74632e-06
5.26467e-06
1.96036e-07
5.26009e-06
-5.18466e-06
-7.54253e-08
-2.36873e-06
-3.35204e-06
-2.37113e-07
4.84394e-06
9.00896e-08
-5.5794e-06
4.3615e-06
-3.43593e-06
-7.32802e-08
1.101e-07
4.25508e-06
-4.61983e-06
3.64747e-07
7.77496e-07
4.48098e-06
7.13761e-06
-6.94178e-06
2.48349e-06
3.14345e-06
-5.03684e-06
4.97783e-06
5.90037e-08
-1.16079e-07
-2.92801e-06
1.60366e-06
1.32436e-06
-5.24726e-08
5.47246e-06
-5.47246e-06
6.18344e-06
-3.58524e-06
-2.5982e-06
-4.53517e-06
-7.61987e-07
3.82534e-06
1.81378e-06
5.23493e-06
2.9744e-08
-4.9351e-06
4.89646e-06
3.11374e-08
-4.9276e-06
4.00881e-06
5.5794e-06
-5.5428e-06
1.4103e-07
6.51465e-06
-5.76893e-06
5.04467e-06
-5.37324e-06
5.00964e-06
-1.13175e-07
4.52245e-06
-4.8936e-06
4.86783e-06
2.57717e-08
2.28865e-07
3.92679e-06
-4.15565e-06
-4.45301e-06
3.67834e-06
-3.33641e-07
4.65743e-06
6.3356e-07
-4.46147e-08
-4.3067e-06
-7.51838e-07
-6.44909e-06
4.08036e-06
7.11237e-09
-4.90646e-06
-5.22482e-06
-2.47886e-07
6.99808e-06
-3.78001e-06
5.02681e-08
-9.0501e-07
5.56471e-06
-4.6597e-06
-2.37766e-06
-5.50348e-07
4.87435e-06
-4.92687e-06
5.25155e-08
-5.04467e-06
5.00265e-06
2.16971e-06
3.09956e-06
-5.26927e-06
5.24434e-06
-9.8926e-07
4.3561e-07
4.65672e-06
5.14262e-06
4.9834e-07
5.61163e-07
6.81359e-07
-5.47087e-06
1.21162e-07
-4.343e-06
4.94165e-06
-2.51555e-06
3.03883e-06
4.64004e-07
-4.56306e-06
4.09905e-06
-3.69855e-08
9.63359e-08
-4.55163e-06
-5.17723e-06
5.08235e-06
9.48801e-08
-4.96649e-06
5.17059e-07
3.24142e-06
2.94202e-06
-2.7952e-06
5.73085e-06
-2.93565e-06
5.7433e-06
-5.36169e-06
-3.81611e-07
1.43164e-07
3.53518e-06
-4.92853e-06
-5.27069e-08
5.00236e-06
7.27767e-09
2.47345e-06
-8.69797e-07
6.36759e-06
-5.72124e-06
4.56524e-06
7.00128e-07
2.87721e-07
-5.07894e-06
7.72243e-07
7.75067e-08
-4.42051e-06
5.67146e-06
-4.5839e-06
4.62409e-06
-2.81436e-07
-4.40194e-06
4.68338e-06
-4.97817e-06
5.18408e-06
-6.13652e-08
-7.54165e-06
6.03037e-07
-3.20001e-08
4.88347e-06
9.43597e-08
-4.61109e-06
-5.06039e-06
5.0393e-06
2.10945e-08
6.0572e-06
-3.51807e-06
-2.53913e-06
-4.24668e-06
-3.81856e-07
4.62854e-06
-1.14103e-08
-5.00447e-06
1.07607e-07
-5.41167e-07
5.34517e-06
-4.80401e-06
-4.90016e-06
4.92448e-06
-7.1115e-06
-1.03805e-06
-6.87901e-06
6.70664e-06
1.72372e-07
3.92638e-06
1.99518e-06
4.59549e-06
4.12251e-07
-5.00774e-06
4.88367e-06
-2.0076e-07
3.93754e-06
1.96473e-06
-3.48678e-06
1.10912e-06
-4.93602e-06
4.288e-06
-4.87882e-06
-6.62691e-06
6.60287e-06
2.4047e-08
5.98599e-06
-4.80506e-06
4.88262e-06
-1.47848e-08
3.00212e-07
-4.55351e-06
4.2533e-06
-7.36186e-08
-6.5533e-06
5.91711e-06
-5.91711e-06
-2.69296e-06
5.07666e-06
-2.3837e-06
-4.88652e-06
4.88652e-06
4.99726e-06
-4.41786e-06
-5.79398e-07
4.64647e-06
1.10369e-06
5.20701e-06
-4.27192e-06
5.14908e-06
-5.75678e-08
-4.03079e-06
-6.45645e-07
4.67644e-06
-6.54617e-06
6.56839e-06
-2.22171e-08
6.03984e-06
-3.63593e-06
-2.40391e-06
8.82574e-07
4.32444e-06
-6.61469e-06
6.58157e-06
3.31186e-08
-1.29107e-09
-4.8183e-08
6.5275e-06
-6.47932e-06
-6.58955e-06
6.58955e-06
-7.84237e-08
4.95277e-06
7.07139e-06
-6.59194e-06
-4.79451e-07
-6.61881e-06
6.57063e-06
6.61308e-06
-6.57938e-06
-3.3699e-08
-4.81826e-06
-1.08604e-07
5.63631e-06
-7.52218e-08
6.56916e-06
-6.49394e-06
6.57121e-06
-6.58358e-06
1.23694e-08
-4.96687e-06
6.53704e-06
-9.53711e-09
-5.05452e-06
5.00938e-06
4.51376e-08
-6.53579e-06
6.55935e-06
-2.35576e-08
5.00602e-06
-4.87628e-06
-6.60132e-06
6.5261e-06
5.06276e-06
-1.60937e-06
2.41145e-06
3.15326e-06
-3.6603e-06
-2.78879e-06
-6.57841e-06
6.57841e-06
-6.60855e-06
-1.0265e-08
6.11769e-06
-1.12138e-06
-4.99631e-06
-4.31239e-06
2.92955e-06
1.64822e-07
6.54756e-06
-6.56783e-06
2.02696e-08
4.81916e-06
-4.81477e-06
-4.39245e-09
6.75155e-06
-6.57621e-06
-1.75347e-07
6.51352e-06
3.40382e-08
6.50153e-06
6.76297e-08
-1.338e-08
-4.87314e-06
-6.03067e-06
3.31849e-06
2.71219e-06
-4.8663e-06
4.89743e-06
6.53416e-06
-2.06394e-08
6.86003e-07
4.43606e-06
3.51424e-06
-1.34453e-06
-6.59181e-06
-9.5123e-09
5.37594e-06
3.19027e-06
-5.43576e-06
-8.28057e-07
-6.71359e-06
4.90462e-06
-4.93316e-06
2.85358e-08
-2.27364e-07
-6.65165e-06
5.10707e-06
-5.69494e-08
5.67828e-06
-3.8848e-06
-1.79347e-06
-4.91522e-06
6.54412e-06
-6.54412e-06
4.68261e-06
6.07445e-08
-4.74336e-06
5.04004e-06
-6.55787e-06
6.54927e-06
8.60016e-09
6.5115e-06
-6.57424e-06
6.27399e-08
4.14467e-06
-5.48547e-06
-1.74794e-08
-6.51172e-06
6.5292e-06
6.4967e-06
-6.51418e-06
-2.17366e-07
6.924e-06
-5.20174e-06
5.63455e-06
-5.88686e-06
4.08306e-06
-1.03499e-07
6.70637e-06
5.63983e-07
2.90514e-06
5.5093e-08
6.06259e-06
-1.78611e-08
5.24725e-06
-5.22939e-06
-4.46363e-08
-6.57358e-06
-4.11113e-08
5.39594e-06
-5.40046e-07
-4.85589e-06
-6.52986e-06
6.52986e-06
3.83438e-06
-3.30111e-06
-6.58396e-06
6.56672e-06
1.72477e-08
5.02821e-06
-5.02821e-06
4.89526e-06
-7.60996e-08
6.53879e-06
-6.54929e-06
1.05021e-08
-6.31234e-06
1.72627e-06
6.4212e-09
-4.857e-06
4.85058e-06
5.26779e-06
-4.40374e-08
6.55253e-06
6.05527e-08
3.97495e-06
6.78474e-07
-4.65343e-06
6.57255e-06
-3.55163e-08
5.10591e-06
-5.10591e-06
6.53077e-06
-6.50807e-06
-2.27054e-08
-4.99389e-06
4.95692e-06
3.69738e-08
6.5807e-06
-6.56074e-06
-1.99529e-08
-6.54068e-06
6.54068e-06
9.74248e-07
4.57963e-06
1.54605e-07
-4.73424e-06
-6.5845e-06
6.56736e-06
1.71324e-08
-2.4296e-08
-4.93063e-06
4.90219e-06
2.43241e-09
6.11998e-06
-1.15669e-06
-4.96329e-06
4.22815e-06
6.51419e-06
-6.53217e-06
1.7975e-08
5.03452e-06
5.3776e-06
7.58067e-08
4.60681e-06
6.67971e-06
-1.27184e-07
6.4928e-06
2.13991e-08
4.77793e-06
-4.77793e-06
-2.51555e-06
6.60609e-06
-6.55418e-06
-2.00557e-08
6.55081e-06
-6.52614e-06
-2.46693e-08
1.28123e-07
-6.67512e-06
6.547e-06
6.86346e-07
-6.60346e-06
-6.57259e-06
6.56126e-06
1.13275e-08
4.74515e-06
-4.74249e-06
-2.65655e-09
4.99726e-06
-4.41016e-06
4.41016e-06
6.50597e-06
-1.31771e-08
-4.87807e-06
-4.55351e-06
4.59549e-06
5.06122e-06
-5.26226e-08
-1.47971e-08
5.18484e-07
-6.46142e-06
6.54971e-06
-6.5518e-06
2.08955e-09
1.56704e-07
4.58844e-06
1.51123e-07
5.24481e-06
4.9335e-06
-3.82392e-08
-6.55793e-06
6.55032e-06
7.61221e-09
6.50013e-06
-6.51829e-06
1.8158e-08
-6.55204e-06
-3.19205e-08
6.53426e-06
-6.51708e-06
-1.71777e-08
4.93383e-06
9.43723e-08
6.53831e-06
2.84031e-08
-8.22323e-09
6.52367e-06
2.66512e-08
-9.91578e-10
-4.83263e-06
-6.62309e-06
6.97939e-08
-4.90165e-06
4.90165e-06
6.06581e-08
6.05933e-06
-4.98101e-06
9.50212e-07
3.43053e-08
6.53691e-06
2.7224e-07
-4.71065e-06
4.43841e-06
4.54423e-08
6.5441e-06
6.24333e-06
-6.80931e-06
4.9293e-06
1.76616e-07
6.4967e-06
-5.03426e-08
4.62997e-06
-4.76627e-06
2.37779e-08
4.69625e-06
-7.21298e-07
-6.51293e-06
6.51293e-06
-6.54781e-06
-3.66815e-08
4.41786e-06
-4.57827e-06
1.60403e-07
-6.5441e-06
4.82317e-06
-4.81675e-06
6.5351e-06
3.22603e-08
-6.53814e-06
-5.81521e-06
4.04664e-06
-6.56606e-06
6.55513e-06
1.09251e-08
4.46404e-06
4.19632e-07
4.857e-06
2.95216e-08
-6.49186e-06
6.53637e-06
-4.45189e-08
-4.93153e-06
4.88773e-06
4.38019e-08
-6.51264e-06
2.07807e-08
4.9122e-06
-1.00065e-08
2.72052e-07
-5.07813e-06
4.80608e-06
6.51112e-06
-6.53995e-06
2.88292e-08
5.29647e-06
-5.54436e-06
6.5104e-06
-6.50969e-06
-7.11702e-10
-4.16056e-06
4.16056e-06
-5.12263e-06
5.12263e-06
-6.50292e-06
-9.71676e-09
-3.03883e-06
3.60282e-06
-6.52152e-06
6.51193e-06
9.59454e-09
5.08696e-08
6.52754e-06
4.06682e-06
-3.60282e-06
-4.06682e-06
4.29569e-06
4.31747e-06
-4.96312e-06
5.95423e-06
-3.52824e-06
-2.42598e-06
-6.54487e-06
-2.77241e-08
-9.43496e-07
-4.29569e-06
5.23918e-06
6.53667e-06
2.45962e-08
-4.9524e-06
4.58971e-06
6.55543e-06
-6.54219e-06
-1.3246e-08
-6.51696e-06
-4.90806e-06
4.93039e-06
-1.52458e-07
-1.74591e-08
6.55162e-06
6.52419e-06
-4.85058e-06
-6.67971e-06
-3.91943e-06
5.00774e-06
-1.08831e-06
-6.48825e-06
-2.34675e-08
6.51573e-06
7.94351e-09
3.79995e-06
-3.88185e-06
8.19055e-08
7.48004e-09
4.57827e-06
-4.76227e-06
1.84003e-07
3.00346e-06
3.05374e-06
-6.54192e-06
-2.41444e-08
-4.95479e-06
6.48708e-06
-6.48166e-06
-5.41715e-09
6.5341e-06
2.10382e-08
-6.55302e-06
6.54597e-06
7.04313e-09
5.00912e-06
4.93383e-06
-6.50372e-06
6.48949e-06
1.42295e-08
6.54962e-06
-6.54674e-06
-2.87989e-09
-4.87087e-06
4.9293e-06
6.50064e-06
-6.50064e-06
2.58784e-08
6.55569e-06
-4.10464e-06
-8.76368e-07
6.51428e-06
-3.1614e-09
-8.37389e-07
4.44982e-06
-3.61243e-06
6.49758e-06
-6.49195e-06
-5.6246e-09
1.98875e-08
6.52423e-06
6.48577e-06
-6.49154e-06
5.76793e-09
-6.56158e-06
-6.53799e-06
-3.93751e-06
5.62937e-09
6.54364e-06
-6.86518e-09
-6.52032e-06
6.52719e-06
-6.50108e-06
6.48689e-06
1.41858e-08
-6.54165e-06
-1.13635e-08
-4.95199e-06
-4.78239e-06
1.61234e-08
6.53498e-06
1.099e-08
-6.49519e-06
6.49244e-06
2.7436e-09
-6.49965e-06
2.44341e-08
6.47521e-06
6.5397e-06
1.57312e-08
-6.51946e-06
-2.27218e-08
-4.75548e-06
-2.24462e-08
6.53649e-06
-6.54052e-06
4.0261e-09
6.49772e-06
-6.50459e-06
-6.51109e-06
6.50211e-06
8.98169e-09
6.49487e-06
-6.48961e-06
-5.26207e-09
4.89735e-06
4.29939e-09
6.53865e-06
1.09626e-08
-6.52953e-06
-1.72042e-08
-6.5535e-06
4.93039e-06
-6.49835e-06
6.4854e-06
1.29537e-08
4.31319e-06
-4.59463e-06
-6.48002e-06
6.50432e-06
-2.43011e-08
6.50011e-06
-6.50981e-06
9.69968e-09
-1.58686e-08
-6.53536e-06
-6.29427e-09
-1.69397e-08
-5.76921e-06
4.09305e-06
-1.11478e-08
6.49772e-06
-1.07695e-08
-6.9332e-09
-6.54086e-06
5.50603e-09
2.50128e-06
5.49521e-06
-7.99649e-06
-1.35411e-06
6.53654e-06
-4.44739e-11
-6.52423e-06
1.20431e-08
6.51782e-06
-6.52818e-06
-1.2337e-08
-4.91354e-06
-6.54737e-06
6.50623e-09
2.28633e-08
6.51593e-06
-1.02492e-09
3.09406e-08
-6.4366e-06
6.40565e-06
6.54555e-06
-6.54221e-06
-3.33796e-09
-5.00132e-06
8.96684e-07
6.53294e-06
-6.5215e-06
-1.14423e-08
-6.53725e-06
-4.84722e-06
-2.55581e-07
6.49349e-06
-6.48836e-06
-5.12999e-09
3.41086e-08
-6.44271e-06
6.40861e-06
-6.54392e-06
6.53172e-06
1.21936e-08
-4.94784e-06
4.90697e-06
4.08732e-08
5.7469e-09
-6.54385e-06
-3.51688e-09
-4.97556e-06
1.03218e-06
3.94337e-06
-6.53531e-06
-8.60291e-09
6.54339e-06
2.1523e-09
-6.53268e-06
-9.52807e-09
-2.60115e-08
-6.54428e-06
4.24814e-10
-4.7059e-06
-5.48921e-07
5.25482e-06
3.7603e-06
2.74784e-08
-6.51782e-06
4.90797e-06
-2.02379e-08
-6.49316e-06
6.49316e-06
-1.25564e-08
6.54026e-06
3.13726e-09
-5.1822e-09
1.01698e-08
1.04733e-08
6.54273e-06
-2.47494e-09
3.85437e-09
6.54103e-06
-6.54109e-06
5.62709e-11
4.72126e-06
-4.72126e-06
-6.52752e-06
6.5135e-06
1.40273e-08
6.50401e-06
-6.49734e-06
-6.67285e-09
-9.17683e-09
6.53864e-06
4.09184e-09
6.53895e-06
2.07413e-09
-2.44485e-09
6.53959e-06
6.53321e-06
-6.53683e-06
3.61442e-09
-6.59626e-06
-6.51233e-06
-1.51971e-08
5.03474e-06
-6.16892e-08
6.52736e-06
5.8477e-09
5.47211e-08
6.53232e-06
-6.52517e-06
-7.15905e-09
-4.66593e-06
4.66593e-06
3.65669e-08
6.50411e-06
-6.4921e-06
6.50252e-06
-1.04259e-08
6.53094e-06
1.38389e-09
5.07689e-08
4.88273e-06
6.52321e-06
-6.52075e-06
-2.46167e-09
-6.47177e-06
-2.03236e-08
6.50477e-06
-6.5101e-06
5.32188e-09
6.51899e-06
4.21639e-09
6.53105e-06
7.9062e-09
-6.47382e-08
-6.45558e-06
-1.07268e-08
-5.75254e-07
-4.38633e-06
6.49456e-06
-6.50086e-06
6.29707e-09
1.94885e-07
4.52637e-06
6.52238e-06
-6.51626e-06
-6.1164e-09
-5.77724e-09
-1.11507e-07
-5.42602e-06
5.53753e-06
-4.72442e-06
4.77816e-06
-5.37407e-08
-6.4641e-06
6.46618e-06
-2.07521e-09
6.51486e-06
7.51291e-09
-6.4956e-06
-4.06069e-06
6.56197e-06
6.51741e-06
-6.50815e-06
-9.26103e-09
-6.52373e-06
6.5239e-06
-1.66603e-10
6.50499e-06
-6.49909e-06
-5.89573e-09
-6.32418e-07
-5.57943e-06
6.21185e-06
6.51072e-06
6.6906e-09
-6.46905e-06
4.94973e-09
6.51835e-06
-6.51e-06
-8.35068e-09
4.89735e-06
-5.01551e-06
5.01551e-06
6.51593e-06
-6.50366e-06
-1.22682e-08
-1.25826e-08
6.51856e-06
-1.02361e-08
-4.90424e-06
6.50675e-06
9.18607e-09
-6.52314e-06
-1.21768e-08
-6.45913e-06
6.46256e-06
-3.43084e-09
6.52381e-06
3.55068e-09
1.10164e-07
6.45822e-06
-1.35216e-09
6.51773e-06
1.65348e-08
4.88184e-06
2.613e-08
7.63256e-10
-6.46551e-06
6.37788e-09
4.97956e-07
1.80807e-08
2.10413e-07
6.49889e-06
-6.50499e-06
6.09483e-09
-6.45228e-06
6.45979e-06
-7.50505e-09
1.15567e-07
-4.88881e-06
4.77324e-06
8.73868e-07
-5.09238e-06
4.21851e-06
1.867e-06
4.61664e-06
-4.61664e-06
6.49441e-06
-6.49441e-06
-5.34736e-06
2.98777e-09
-6.50671e-06
4.98395e-06
6.51629e-06
1.46532e-08
-1.22923e-06
-2.28538e-06
3.51461e-06
-6.4617e-06
9.41265e-09
-6.46536e-06
-2.09764e-07
2.76303e-06
-4.5592e-06
1.79617e-06
-4.46004e-09
4.41355e-08
6.46019e-06
1.74793e-08
4.89472e-06
-6.52551e-06
1.37261e-08
6.4992e-06
4.14589e-06
-5.05867e-06
9.12782e-07
4.21897e-06
-1.45594e-06
-8.11984e-09
-6.49296e-06
6.52647e-06
-6.48234e-06
-6.5078e-06
-6.44376e-06
6.43764e-06
6.11766e-09
1.43825e-09
6.51049e-06
6.48767e-06
6.7398e-09
5.92821e-06
-3.9343e-06
-1.99391e-06
-2.31024e-08
4.9524e-06
6.50872e-06
1.0274e-08
5.92597e-06
-6.55839e-06
4.39923e-08
6.46002e-06
-7.67341e-09
-6.49068e-06
-6.45129e-06
7.52995e-09
-4.73913e-06
1.47153e-08
4.97925e-06
-3.99226e-06
-9.86986e-07
6.4761e-06
-6.47666e-06
5.61952e-10
-7.54219e-09
1.86873e-06
-2.62661e-06
-2.4609e-06
5.08752e-06
6.48815e-06
-6.49814e-06
9.98685e-09
5.16976e-06
-5.10902e-06
-1.81555e-08
4.95199e-06
-4.25254e-06
3.02331e-06
6.48162e-06
-6.48813e-06
6.517e-09
6.51887e-06
-6.47488e-06
-4.88326e-06
1.62006e-07
-4.90203e-06
4.896e-06
6.02592e-09
4.76227e-06
-4.87378e-06
1.03261e-07
6.45609e-06
-4.94554e-06
4.79711e-06
-1.7467e-07
6.50879e-06
-6.5009e-06
-7.88866e-09
5.06798e-06
-4.84128e-06
-2.267e-07
6.48767e-06
-3.91626e-09
-6.49127e-06
-4.79831e-06
1.59134e-08
6.01568e-07
3.68592e-06
-4.28749e-06
-6.43553e-06
6.42855e-06
6.98097e-09
6.47744e-06
2.26624e-08
-4.10241e-06
-8.60706e-07
4.71228e-08
6.45786e-06
6.49805e-06
-6.51321e-06
1.51597e-08
6.49006e-06
-1.19914e-08
-6.46967e-06
-5.07522e-06
-8.5543e-07
6.50136e-06
1.35e-08
6.91189e-06
-1.41669e-06
-3.93347e-08
6.49489e-06
-6.45556e-06
6.49204e-06
6.01163e-09
-6.44469e-06
9.15591e-09
-6.46343e-06
-4.62602e-08
-1.24041e-08
6.40813e-06
-6.39572e-06
8.42894e-09
6.49221e-06
6.51972e-06
-6.4726e-06
-6.4992e-06
-2.44017e-08
4.95479e-06
-6.78775e-09
4.91468e-06
-2.53911e-07
-4.66077e-06
6.60983e-08
4.84858e-06
-6.41727e-06
6.40487e-06
-6.49826e-06
-1.40636e-08
4.12512e-06
8.54129e-07
-2.46495e-08
5.02632e-06
-5.00167e-06
-4.16368e-06
-3.48319e-06
4.08475e-06
-5.43171e-06
6.71436e-07
4.76027e-06
6.48946e-06
4.94939e-09
-6.4969e-06
6.44606e-08
6.46201e-06
6.47971e-06
-6.48067e-06
9.5578e-10
6.49388e-06
-6.47456e-06
-1.93251e-08
-6.50266e-06
4.26118e-09
-9.3819e-09
-4.90668e-06
4.91606e-06
9.4512e-10
6.50116e-06
-4.51063e-06
1.32028e-06
-6.49414e-06
6.49051e-06
3.62884e-09
-6.42649e-06
6.41883e-06
7.65671e-09
6.31237e-08
5.31234e-06
-5.15774e-06
3.8932e-06
-9.32502e-08
-3.36938e-08
6.49853e-06
-6.46483e-06
-5.79488e-06
3.16826e-06
6.4872e-06
5.74531e-09
-6.49535e-06
6.49395e-06
1.67688e-08
-6.06976e-06
6.09737e-08
6.00879e-06
1.01541e-08
-6.43664e-06
6.48111e-06
-6.4743e-06
-6.81293e-09
-2.05148e-07
6.5195e-06
-6.31435e-06
-9.70909e-09
-1.33246e-06
6.10095e-06
-4.76849e-06
-4.88326e-06
-5.41684e-06
6.4852e-06
-3.57965e-09
5.69003e-08
6.46197e-06
6.32265e-06
6.5464e-06
-6.54141e-06
-4.98623e-09
-1.43447e-10
-4.91439e-06
4.91454e-06
-6.48892e-06
6.48452e-06
4.40278e-09
1.31076e-07
-4.88656e-06
4.75548e-06
6.4975e-06
-6.49479e-06
-2.71297e-09
-5.03103e-06
5.00638e-06
6.47839e-06
-6.4734e-06
-4.98612e-09
1.81723e-08
6.47571e-06
-7.04388e-08
6.51289e-06
-6.4931e-06
6.78807e-08
-4.78971e-06
6.49274e-06
-6.49163e-06
-1.10988e-09
6.48958e-06
3.79147e-09
-6.49215e-06
6.45636e-06
1.37169e-08
-6.47008e-06
1.54699e-09
6.49358e-06
-6.47541e-06
-1.5412e-08
-4.91716e-06
4.93257e-06
3.4865e-06
-5.13044e-06
1.64394e-06
-1.09355e-06
-4.97621e-06
-4.76646e-06
-1.0727e-06
-4.18481e-06
-6.4856e-06
3.73622e-08
6.44824e-06
-4.94717e-06
4.91716e-06
3.00057e-08
-1.50542e-06
-3.98005e-06
-6.48227e-06
5.78703e-06
-6.46886e-06
6.48024e-06
-1.13841e-08
-5.40659e-06
5.37521e-07
4.86907e-06
5.1605e-06
-3.9656e-06
-1.19489e-06
-6.4915e-06
1.30022e-08
6.4785e-06
4.92491e-06
-4.8635e-06
1.35675e-08
6.46755e-06
-6.49221e-06
6.58869e-09
6.48657e-06
6.48566e-06
2.10884e-08
-1.07465e-09
-6.49046e-06
-2.09617e-08
-6.47318e-06
-6.47535e-06
4.91909e-06
-4.85811e-06
-2.75547e-08
1.38639e-06
4.29189e-06
-4.44383e-06
4.44383e-06
5.6285e-08
6.46344e-06
-7.35778e-06
-5.98624e-06
5.9861e-06
6.49444e-06
4.91553e-06
-4.88029e-06
-6.48443e-06
6.46347e-06
-5.48062e-06
5.61169e-06
6.47993e-06
-6.47427e-06
-5.65972e-09
7.83569e-09
6.48673e-06
-6.56254e-06
4.9382e-06
-4.95361e-06
-6.48262e-06
1.08457e-08
2.44111e-06
6.4985e-06
-6.4906e-06
-7.89482e-09
-6.49427e-06
6.48023e-06
-6.47483e-06
-5.40458e-09
-6.47913e-06
-6.46971e-09
6.46544e-06
-6.44564e-06
-4.95692e-06
5.95848e-06
6.47465e-06
-6.47252e-06
-2.13106e-09
-1.14213e-08
6.46778e-06
-4.94717e-06
4.2875e-06
-4.64681e-06
3.59307e-07
-7.97508e-06
7.97508e-06
6.49137e-06
6.49264e-06
-1.644e-08
1.0857e-08
-6.49085e-06
6.51332e-06
-2.24751e-08
6.47828e-06
-6.47286e-06
-5.4171e-09
-5.37594e-06
5.12036e-06
1.99673e-08
6.47492e-06
-6.49142e-06
1.75125e-08
6.47391e-06
-6.47244e-06
6.48643e-06
-6.47774e-06
-4.97103e-06
-6.48604e-06
2.1639e-08
6.4644e-06
-4.97836e-06
-1.39804e-08
4.85882e-06
-4.8958e-06
3.69866e-08
6.46978e-06
-6.47524e-06
5.45313e-09
1.19684e-07
-6.48594e-06
6.47519e-06
1.07439e-08
6.48166e-06
-4.75239e-06
-4.71884e-06
-7.94633e-08
6.49013e-06
-6.49013e-06
-3.32528e-08
4.9306e-06
-6.48657e-06
6.47707e-06
-6.47166e-06
-5.40537e-09
6.48919e-06
-3.61274e-08
-6.48096e-06
-4.82447e-06
-6.01556e-07
-4.94581e-06
3.87717e-06
-4.33057e-06
4.53399e-07
-9.71171e-07
-4.18709e-06
5.15826e-06
6.4652e-06
-6.44809e-06
4.18932e-06
-4.88881e-06
-1.39497e-08
-6.47755e-06
6.48055e-06
-6.47518e-06
-5.37489e-09
4.97872e-06
-5.00331e-06
-1.36988e-06
-9.03802e-07
2.27368e-06
-5.1647e-06
5.20794e-06
4.9967e-06
-4.9306e-06
-1.96038e-08
-4.84546e-06
4.86506e-06
-2.28517e-08
-4.80861e-06
4.83146e-06
1.62513e-08
-5.03812e-06
5.02187e-06
4.60833e-08
-5.05843e-06
5.01234e-06
2.32837e-08
-4.95713e-06
4.93385e-06
-9.68862e-09
-4.85144e-06
4.86113e-06
-1.13258e-08
-4.84739e-06
4.85872e-06
2.91862e-06
-1.96645e-06
-9.5217e-07
4.30419e-06
3.15359e-08
6.46699e-06
4.74522e-06
-4.77171e-06
2.64931e-08
1.52406e-08
-6.478e-06
6.46276e-06
6.49475e-06
-6.49475e-06
6.40874e-06
-1.59875e-09
-6.40715e-06
-2.15437e-08
-6.46289e-06
6.4766e-06
-6.47096e-06
-5.63797e-09
-4.02534e-06
-5.28558e-06
-1.2101e-07
4.2442e-06
8.23774e-07
6.48955e-06
-6.48085e-06
-8.69463e-09
-4.93993e-06
5.13274e-06
2.14739e-08
6.4721e-06
-3.56021e-06
-2.23467e-06
4.77227e-08
4.65015e-06
-4.69787e-06
-3.32037e-06
-5.61483e-07
-1.11404e-06
-6.90175e-07
1.80421e-06
4.87215e-06
4.87293e-06
5.08604e-06
5.08612e-06
5.05078e-06
4.98627e-06
-2.26937e-08
-4.88561e-06
4.9083e-06
4.88807e-06
-6.22886e-09
-1.92563e-06
6.47868e-06
-6.46344e-06
-1.59938e-07
5.211e-06
-6.49838e-06
-4.43665e-06
5.48432e-06
6.40012e-06
5.65682e-09
-6.40578e-06
6.50326e-06
-1.31304e-08
-6.4893e-06
2.32514e-08
6.46605e-06
-4.89419e-06
-4.90668e-06
4.90615e-06
-4.92884e-06
-4.46541e-06
5.39519e-06
-9.29778e-07
-1.15801e-08
-6.47446e-06
3.38207e-06
-4.21946e-06
1.06987e-08
-6.485e-06
-6.47737e-06
-1.72323e-06
-2.52931e-06
-6.46576e-06
-1.22403e-08
4.96435e-06
1.54874e-06
3.77409e-06
6.47033e-06
-6.46534e-06
-4.98278e-09
4.93293e-06
-3.26753e-06
-1.6654e-06
-2.3484e-06
1.23436e-06
-2.72169e-06
5.88995e-06
-2.36034e-06
4.90693e-06
-2.54659e-06
1.97791e-09
6.48618e-06
-6.44186e-06
6.47483e-06
-6.47861e-06
3.78132e-09
-3.66751e-06
1.56457e-06
2.10294e-06
-2.16549e-08
-4.88417e-06
4.90583e-06
6.78238e-06
-3.00349e-06
-3.77889e-06
4.84508e-09
6.4039e-06
-1.40956e-06
-2.25795e-06
-4.73218e-06
4.77991e-06
4.03657e-06
2.67626e-07
-4.70856e-06
-9.94637e-09
-4.89108e-06
4.90103e-06
5.05289e-06
-4.89618e-06
-3.00875e-06
-1.14026e-06
4.149e-06
-6.46493e-06
6.46681e-06
-1.88008e-09
-4.78041e-06
4.84829e-06
6.47211e-06
-6.47631e-06
-4.32672e-06
-1.17106e-07
-6.52018e-06
6.49551e-06
-3.37601e-06
4.89089e-09
6.47535e-06
5.64855e-06
-3.1218e-06
-2.52675e-06
4.78216e-06
-9.04991e-07
5.34116e-06
-6.91012e-07
4.89828e-06
-4.91993e-06
6.46327e-06
-6.4636e-06
3.26152e-10
4.904e-06
-4.91395e-06
5.94513e-09
-6.45998e-06
6.45404e-06
-2.72526e-06
-6.50752e-07
1.14031e-08
-4.96833e-06
-6.4782e-06
9.14698e-09