/*--------------------------------*- C++ -*----------------------------------*\
  =========                 |
  \\      /  F ield         | OpenFOAM: The Open Source CFD Toolbox
   \\    /   O peration     | Website:  https://openfoam.org
    \\  /    A nd           | Version:  12
     \\/     M anipulation  |
\*---------------------------------------------------------------------------*/
FoamFile
{
    format      ascii;
    class       volVectorField;
    location    "0.07";
    object      U;
}
// * * * * * * * * * * * * * * * * * * * * * * * * * * * * * * * * * * * * * //

dimensions      [0 1 -1 0 0 0 0];

internalField   nonuniform List<vector> 
4428
(
(0.000532559 0.000202373 1.01429e-16)
(-0.000538839 0.000223325 -9.03833e-17)
(-0.000493134 0.000226812 0)
(-0.000508018 0.000216325 0)
(0.000487345 0.000408749 8.16399e-17)
(0.000517669 0.000424459 3.30288e-21)
(-0.000487664 0.000288582 0)
(-0.000544066 0.000193278 1.46411e-16)
(0.000530186 0.000221486 -2.49067e-16)
(0.00055043 0.000156266 9.95383e-17)
(-0.000504347 0.000172173 -1.73331e-16)
(0.000494924 0.000220572 -1.76863e-16)
(-0.000565103 0.000112319 -2.0366e-16)
(-0.000169883 0.000624063 -9.58163e-17)
(0.000524783 0.000202961 0)
(0.00048417 0.00017426 0)
(0.000550986 0.000200233 0)
(-0.000504422 0.000172058 0)
(-0.000567725 0.000111354 0)
(0.000532734 0.000200314 0)
(0.000187458 0.000154457 -4.48036e-16)
(-0.000537316 0.000205271 -1.77702e-16)
(-0.000505589 0.000219634 0)
(-0.000560292 0.000183475 0)
(-0.000534613 0.000204282 2.26618e-17)
(-0.000506938 0.000182552 0)
(-0.00051443 0.000279574 1.03357e-16)
(0.000521629 0.000159497 2.07804e-16)
(0.000490894 0.0002431 0)
(-0.000574922 0.000123824 0)
(0.000537032 0.000118738 0)
(-0.000543206 0.00020306 -1.84205e-16)
(0.000542227 0.000173077 -9.00198e-17)
(-0.000558394 0.000276113 -2.77425e-16)
(-1.33852e-05 0.000730422 4.69775e-17)
(-0.000540677 0.000212405 1.99863e-16)
(-0.000535251 0.000274999 -4.41082e-21)
(0.000492234 0.000663578 1.27044e-17)
(-6.83903e-05 0.000633575 -2.62235e-17)
(-0.00050899 0.000225541 0)
(0.000541198 0.000194493 0)
(0.000477515 0.000146741 0)
(0.000507423 0.00017116 9.24321e-17)
(-0.00055667 0.000175179 1.66058e-16)
(0.000531097 0.000158287 0)
(0.000430345 0.000163546 0)
(0.000502859 0.000488274 -9.97845e-17)
(-0.000504643 0.00025116 2.03144e-16)
(-0.000517086 0.000224728 2.24461e-16)
(-0.000532401 0.000237052 0)
(0.000533992 0.00022805 0)
(0.000467407 0.000237688 1.88123e-16)
(0.000550859 0.000159602 -9.13189e-17)
(0.000474078 0.000244891 0)
(0.000490152 0.000212659 -1.39784e-17)
(0.000329788 0.000151167 0)
(0.000483537 0.000234065 -9.29933e-17)
(-0.000511231 0.000159758 0)
(0.000443642 0.000477388 1.82962e-16)
(0.000523478 0.00017489 -1.82011e-16)
(0.000549009 0.000210944 1.67097e-16)
(-0.000552113 0.000174097 0)
(0.000476217 0.000186348 2.79953e-16)
(-0.000542332 0.000202466 9.26986e-17)
(-0.000539536 0.000212932 0)
(0.000497124 0.000218069 0)
(-0.00055263 0.000177634 1.73158e-16)
(-0.000511394 0.000220225 -1.85821e-16)
(0.000515489 0.000181539 -1.82186e-16)
(-0.000532427 0.000230702 -3.6191e-16)
(-0.000554827 0.000169734 -9.16136e-17)
(0.000516774 0.000237615 2.12654e-16)
(0.00056928 0.000255123 5.80509e-17)
(-0.000500597 0.000211648 4.46955e-17)
(0.000529581 0.000186941 1.9665e-16)
(-9.32931e-06 0.000715993 -1.83296e-16)
(0.000552876 0.00025556 0)
(0.000569093 0.000229864 0)
(-0.000494992 0.00029114 -1.18145e-16)
(0.000376091 0.000172989 -4.24198e-21)
(0.000484561 0.00025024 -1.9754e-16)
(-0.000549028 0.000171596 0)
(0.000503892 0.000245465 -1.81064e-16)
(0.000515944 0.000220809 -1.72067e-16)
(0.00054886 0.000198183 3.18306e-16)
(-0.000596553 0.000176042 -2.54692e-16)
(-7.49417e-05 0.000817709 1.15144e-16)
(-0.000548736 0.000201405 0)
(-0.000540843 0.000205097 -9.60345e-17)
(0.000493366 0.000217118 2.04742e-17)
(0.000530924 0.000156217 8.36653e-17)
(0.000543678 0.00019475 -1.59369e-16)
(-0.000549821 0.000218545 0)
(-0.000554294 0.000207644 0)
(-0.000540096 0.000213406 9.81698e-17)
(-0.000522139 0.000223037 1.6712e-16)
(0.000547167 0.000215486 1.13532e-16)
(-0.000561142 0.000213934 -1.19904e-16)
(-0.000555629 0.000167794 9.2871e-17)
(0.00050233 0.000280758 0)
(0.000500589 0.000231947 -2.25142e-17)
(0.000517698 0.000204232 0)
(0.000531232 0.000185814 0)
(0.00047984 0.000182326 -1.87987e-16)
(0.000480707 0.000231376 -1.03702e-16)
(0.000487091 0.000233705 2.47053e-21)
(0.0005233 0.000215463 1.90327e-16)
(-0.000536899 0.000261389 -1.22456e-16)
(0.000552723 0.000213589 -1.20823e-16)
(0.000502381 0.000258092 0)
(0.000521223 0.000169664 1.64696e-16)
(0.000522158 0.0002 -1.94805e-16)
(-0.000501854 0.000208661 2.64082e-21)
(0.000494295 0.000188712 1.65965e-16)
(-0.000306477 0.000191827 1.15542e-16)
(-0.000555608 0.000165813 1.80234e-16)
(-0.000118811 0.000698835 0)
(0.00021682 0.000170232 5.24748e-17)
(-0.000560811 0.000182246 8.87656e-17)
(0.000565476 0.000225012 -1.12861e-16)
(0.000569623 0.000220073 2.11533e-16)
(-0.000495407 0.000293606 2.41279e-16)
(0.000361156 0.000591064 -1.96897e-16)
(0.000538306 0.000175695 -3.03621e-16)
(7.30495e-06 0.000730904 1.7876e-16)
(-0.000543024 0.00020269 0)
(-0.00055096 0.000181104 -2.72259e-16)
(0.000500482 0.000214206 9.95094e-17)
(-0.000539619 0.000220965 -3.04102e-16)
(-0.000541945 0.000211609 9.66773e-17)
(-0.000554709 0.000171349 -1.87134e-16)
(-0.000530281 0.000219628 0)
(0.000539357 0.000216228 2.24128e-16)
(0.000511788 0.00019614 0)
(0.0005199 0.000202455 0)
(0.000555957 0.000240013 6.53773e-21)
(0.000561333 0.000234758 -2.43672e-16)
(-0.000554698 0.000168135 -1.82389e-16)
(-0.000542977 0.000207761 -1.83552e-16)
(-0.000537221 0.000217775 1.43949e-16)
(-0.000539311 0.000264538 -1.23708e-16)
(-0.000542647 0.000196219 -9.6749e-17)
(0.000512093 0.000206271 0)
(0.000516212 0.000207758 -1.9943e-16)
(0.000538448 0.000200719 0)
(0.00051024 0.000196714 9.67651e-17)
(0.000554268 0.000257696 1.28476e-16)
(-1.25042e-05 0.000517207 -9.13953e-17)
(0.000574444 0.000147557 2.8889e-16)
(-9.34222e-06 0.000728571 4.54412e-17)
(-0.000542633 0.000202929 -1.99514e-16)
(-0.000350917 0.00015958 1.00284e-16)
(0.000515359 0.000158692 -9.6548e-21)
(0.000576303 0.000195131 -2.48625e-16)
(-0.000541559 0.0002114 2.91597e-16)
(0.000548328 0.000202921 0)
(0.000502458 0.000336034 -1.77129e-16)
(0.000534391 0.000155949 -9.4849e-17)
(0.000533906 0.000186716 -1.78768e-16)
(-0.000547526 0.000174582 -9.1235e-17)
(-0.000538879 0.000224575 1.95449e-16)
(0.000523846 0.000207908 0)
(0.00056965 0.000172344 0)
(-0.000189683 8.48804e-05 -2.17178e-16)
(-0.00056882 0.000245325 1.19565e-16)
(-0.000555348 0.000170174 0)
(-0.000540338 0.000197878 0)
(0.000568936 0.000177041 0)
(-0.000540795 0.000207118 1.94183e-21)
(-0.000542322 0.000234999 9.36794e-17)
(-0.000552523 0.000178164 -9.38005e-17)
(0.000540574 0.000215827 4.00545e-21)
(-0.000543638 0.0002036 0)
(0.000484308 0.00020683 0)
(0.000498264 0.000648484 -1.16376e-17)
(-0.000573847 0.000247702 2.2908e-16)
(0.000546165 0.000195147 0)
(0.000472036 0.00024683 2.14592e-16)
(0.00051403 0.000223421 2.17942e-16)
(-0.000573025 0.000244242 1.1432e-16)
(-7.86446e-05 0.000728051 -6.97443e-21)
(-0.000524022 0.000218208 1.7508e-16)
(-0.000546166 0.000190957 1.91953e-16)
(0.000503546 0.000190276 0)
(-0.000542201 0.000203252 3.00575e-16)
(-0.00053538 0.000253866 -9.5218e-17)
(0.000535799 0.000208584 0)
(-0.000540734 0.000210854 0)
(0.000465374 0.000193477 3.43575e-16)
(0.000537771 0.000241353 0)
(0.000525191 0.000190715 0)
(0.000547193 0.000270592 2.58473e-17)
(0.000532893 0.000187222 0)
(0.000533927 0.000233862 -3.67877e-16)
(-0.000522041 0.000253745 0)
(-0.000521148 0.000251848 -1.80869e-16)
(-0.000520649 0.000251123 2.70927e-16)
(-0.00051614 0.000246312 8.88784e-17)
(0.000737163 0.000427184 1.4876e-16)
(-0.00017094 0.000770795 0)
(0.000534134 0.000242912 2.13766e-16)
(-0.000545809 0.000197568 -1.94083e-16)
(0.000429144 0.000228811 -1.9031e-16)
(-0.000549653 0.000175593 0)
(0.000485569 0.000191729 -1.76633e-16)
(0.000528282 0.000185467 -2.98062e-18)
(-0.000539711 0.000208043 9.32592e-17)
(-0.000120218 0.000837908 -1.7791e-16)
(-0.000273281 0.000726116 1.11842e-17)
(0.000358154 0.000186765 0)
(0.000542543 0.00023544 0)
(0.000597717 0.000204765 0)
(0.000537679 0.000225938 5.93198e-21)
(-0.000544923 0.000191436 0)
(0.000527332 0.000195741 0)
(-0.000527069 0.000248413 -1.4009e-16)
(-0.000522174 0.000245187 1.83786e-16)
(2.11398e-05 0.000729104 -1.84695e-16)
(-0.000511425 0.00020163 1.99301e-16)
(-0.000518866 0.000249876 -4.53598e-17)
(0.000536626 0.00022439 1.95367e-16)
(0.00057689 0.000197964 -6.15126e-17)
(-0.00053714 0.000209615 1.85472e-16)
(0.000559301 0.000248154 0)
(-0.00052238 0.000250756 0)
(-0.000541827 0.000203748 0)
(-0.00054469 0.000209337 -1.08728e-16)
(0.000524562 0.000188052 -1.93046e-16)
(0.000499924 0.000212083 3.79825e-21)
(-0.000540207 0.000210585 0)
(-0.000542053 0.000197098 9.83253e-17)
(-0.000334808 0.000665059 0)
(0.000458026 0.000291864 0)
(8.68616e-05 0.000809495 8.61763e-17)
(0.000508595 0.000209196 5.74634e-17)
(-0.00052659 0.000242031 0)
(-0.000524498 0.00024696 0)
(-0.000524829 0.000245042 1.8822e-16)
(-0.00052644 0.0002437 -1.86176e-16)
(-0.000548566 0.000179037 2.97773e-16)
(-5.40733e-05 0.000143522 5.1389e-17)
(-0.000566923 0.000222439 -5.90073e-17)
(-0.000513719 0.000247114 6.23711e-17)
(0.000524879 0.000209764 2.23738e-17)
(-0.000543969 0.000193145 -9.62596e-17)
(-0.00014801 0.000549024 -1.01157e-16)
(-0.000537412 0.000258012 1.89329e-16)
(-0.000545816 0.00019495 1.92818e-16)
(0.00062592 0.000417704 0)
(-6.06664e-05 0.000546323 0)
(-0.000567089 0.000232986 6.06576e-21)
(0.000514516 0.000204546 2.04398e-16)
(0.000536924 0.00022691 -1.05651e-16)
(-0.000522668 0.000244739 1.8189e-16)
(0.000462974 0.00017137 -1.31319e-16)
(9.50052e-05 6.31688e-05 1.07918e-16)
(-0.000524398 0.000245229 -3.65592e-16)
(2.95643e-06 0.000724071 0)
(-0.000620916 0.00021715 -3.66795e-17)
(-0.00052885 0.000242662 -2.11765e-16)
(-0.000527378 0.000243484 1.90022e-16)
(-0.000188296 9.42347e-05 2.1722e-16)
(-0.000541664 0.000198348 0)
(0.000580521 0.000116746 1.23015e-16)
(-0.000524484 0.000243274 -9.37861e-17)
(-0.000538268 0.000208699 -1.00074e-16)
(0.000552675 0.000199793 0)
(-0.000525053 0.000244357 0)
(-0.00036585 0.000798007 1.37279e-16)
(-0.000558165 0.000189041 -1.8374e-16)
(0.000527107 0.000181279 0)
(0.00054836 0.000259493 2.37183e-16)
(0.000524361 0.000209129 1.23126e-17)
(-0.000105673 0.000589005 2.58446e-16)
(-0.000542095 0.000204912 0)
(0.000512569 0.000218872 1.98134e-16)
(0.000530982 0.000200001 -2.63566e-16)
(-0.000542778 0.0001963 1.94299e-16)
(0.000567521 0.00027558 0)
(9.11245e-05 6.06422e-05 -1.10466e-16)
(-0.000597309 0.000249204 -2.56961e-22)
(-9.12844e-05 0.000740743 9.63423e-17)
(0.00052612 0.000199316 0)
(-0.000547393 0.000181892 -2.9918e-16)
(0.000489198 0.000276939 3.93351e-16)
(0.000479531 0.000276055 -9.12454e-17)
(0.000531066 0.000208761 -1.32952e-17)
(0.000533761 0.000181884 -1.26249e-16)
(0.000534274 0.000211724 1.9444e-16)
(0.000534564 0.000198212 0)
(-0.00059513 0.000174949 1.43581e-16)
(-0.000561403 0.000183423 -1.87094e-16)
(-0.00052982 0.000237891 -7.47207e-19)
(0.000502959 0.000246157 0)
(0.00049444 0.000220206 2.14674e-16)
(0.000171907 5.83751e-05 2.31987e-16)
(-0.00053853 0.000200665 1.95536e-16)
(-0.00052338 0.000242703 2.07966e-16)
(-0.000536474 0.000245905 0)
(-0.000330406 0.000778302 1.96766e-16)
(-0.000544258 0.000197546 5.90447e-21)
(0.000504003 0.000191913 1.14696e-16)
(-0.000541173 0.000199258 0)
(-0.000527404 0.000242331 -1.18784e-17)
(-0.00052673 0.000244017 0)
(-0.000526026 0.000244015 -1.85914e-16)
(-0.000541385 0.000211757 0)
(-7.81656e-05 0.000807531 -1.19594e-16)
(0.00034969 0.000200384 -3.44562e-16)
(0.000518534 0.000272448 1.25599e-16)
(-0.000542439 0.000198012 9.79724e-17)
(0.000518094 0.000205119 0)
(0.000553987 0.000267116 -1.26568e-16)
(-9.11026e-05 0.00078919 -1.90457e-16)
(0.00032479 0.000109255 -2.23908e-16)
(0.00052491 0.000215474 0)
(0.000534429 0.000238912 0)
(0.000521759 0.000221792 -1.87619e-16)
(-0.000546279 0.000185085 0)
(-0.000538663 0.000205694 1.96573e-16)
(-0.000134522 0.000869595 -6.17616e-18)
(-0.000571511 0.000252398 -1.01493e-16)
(-0.000498805 0.000191951 6.10887e-17)
(0.000516082 0.000200046 3.89329e-16)
(-0.000383426 0.00118013 -1.46081e-16)
(0.000882472 0.000348026 -1.97881e-16)
(0.000500641 0.000235232 -2.12588e-16)
(-0.000534958 0.000208399 9.64319e-17)
(-0.000535951 0.000251245 -1.21776e-17)
(-0.000522712 0.000246191 -1.89498e-16)
(0.000523352 0.000199845 2.09792e-16)
(-0.00053945 0.000200829 0)
(-0.000541145 0.000199714 9.90863e-17)
(-0.000620696 0.000215488 1.50962e-16)
(-0.000542758 0.000259472 0)
(-0.000534403 0.000246932 0)
(0.000549342 0.000260578 -1.23286e-16)
(0.000497275 0.000189936 0)
(-0.000541944 0.00020335 0)
(0.000505721 0.000192752 0)
(-0.000526647 0.000242752 1.18325e-17)
(-0.000533274 0.000239472 7.54748e-19)
(0.000490903 0.000157529 0)
(0.000529184 0.000196004 1.92893e-16)
(-2.86684e-06 0.000729801 0)
(0.000532007 0.000171372 0)
(-0.000543411 0.00019992 4.92545e-17)
(-0.000546076 0.000194659 -3.01488e-16)
(5.19789e-05 0.000320217 0)
(-0.000537035 0.000207447 -1.93421e-16)
(-0.000569298 0.000125261 9.23834e-17)
(-0.000578088 0.000221633 -4.44568e-21)
(-0.00057549 0.000192179 -2.43401e-16)
(-0.000621266 0.000210885 1.51164e-16)
(-0.000528644 0.000252828 0)
(-0.000546841 0.000188528 2.02118e-16)
(-0.000536798 0.000206244 1.00297e-16)
(0.000528173 0.000199985 0)
(-0.000532136 0.000181488 1.62548e-16)
(-0.000539741 0.000200356 -2.68744e-16)
(-5.79545e-06 0.000706493 0)
(-0.00052382 0.000240904 -2.80441e-16)
(-0.000539636 0.000226742 0)
(-0.000542916 0.000201854 0)
(0.000536761 0.000195947 2.03121e-16)
(-0.000541251 0.00019809 1.01386e-16)
(0.000472154 0.000168284 2.14785e-16)
(0.000533443 0.000215961 -2.03935e-16)
(-0.000378953 0.000185458 0)
(-0.000573042 0.000192208 0)
(-0.000537466 0.000207422 0)
(0.000525752 0.000204792 -2.12713e-16)
(0.000541091 0.000238572 0)
(0.000531875 0.000200603 0)
(-0.000576023 0.00024976 -2.99368e-16)
(8.85848e-05 0.000708236 2.1799e-16)
(-0.000530633 0.000249497 1.92282e-16)
(0.000556081 0.000170062 -2.15593e-16)
(-1.15373e-05 0.000376301 -6.19439e-17)
(-0.000540425 0.000210842 0)
(-0.000538027 0.000229658 2.9976e-16)
(-0.000515056 0.00024623 -1.80342e-16)
(6.08752e-05 0.000553438 1.08289e-16)
(0.000567936 0.000108683 0)
(0.000582998 0.000146624 1.14709e-16)
(0.000507731 0.000217375 1.77804e-16)
(-0.000107203 8.12441e-05 2.10735e-16)
(-0.000539717 0.000198989 -9.03946e-17)
(0.000530651 0.000210538 0)
(0.000329521 0.000124634 0)
(0.000458624 0.00013841 3.86495e-16)
(-0.000538131 0.000207703 0)
(0.000557584 0.000175239 -1.07231e-16)
(-0.000580771 0.00014829 1.26096e-16)
(-0.000542321 0.000206651 9.58135e-17)
(0.000513318 0.000205433 -1.9517e-16)
(-0.000620305 0.000231879 -1.35983e-16)
(-0.000517051 0.000219237 1.84902e-16)
(-0.000589364 0.000271325 1.0101e-16)
(-0.000402805 0.000160098 -1.08944e-16)
(-0.000543008 0.000205007 0)
(-0.000540936 0.000205647 0)
(-4.05021e-05 0.000271566 0)
(9.24366e-06 0.000704627 -2.50985e-16)
(-0.00057319 0.000198507 0)
(-0.00054419 0.000269368 -8.72318e-17)
(0.000525011 0.000200097 3.76169e-16)
(0.00050323 0.000213558 -1.11177e-16)
(0.000525946 0.000184395 3.79535e-16)
(0.000531852 0.000219528 -5.49164e-17)
(0.000527354 0.000200104 -5.54751e-21)
(-0.000535762 0.000216368 -4.91297e-17)
(-0.000537179 0.000210151 -9.63683e-17)
(-4.41572e-05 0.000830232 5.97402e-18)
(-0.000539098 0.000208115 -1.95299e-16)
(-0.000535487 0.00022439 -5.15039e-17)
(0.000501257 0.000218112 0)
(-0.000540847 0.000208014 -9.75884e-17)
(-0.000584834 0.00022026 -3.58928e-16)
(-0.000529588 0.00023771 -1.39397e-17)
(-0.0005431 0.000202829 0)
(-0.000548177 0.000175446 4.83504e-17)
(-0.000540474 0.000200096 -9.87683e-17)
(0.000571939 0.000252235 -2.08727e-16)
(-0.000536198 0.000212969 -9.94732e-17)
(7.89105e-05 0.000808239 6.96565e-18)
(0.000513996 0.000185989 2.44315e-17)
(-1.53135e-05 0.000788884 -1.98863e-16)
(-0.000597746 0.000254406 2.82357e-16)
(-0.000521918 0.000175008 -3.98535e-16)
(0.000526377 0.000203026 1.03055e-16)
(-0.00059828 0.000254694 1.25939e-16)
(7.7628e-05 0.000409356 8.1134e-17)
(-0.000535003 0.000212108 1.97983e-16)
(0.000512293 0.00017379 1.76673e-16)
(-5.90026e-06 0.000774052 0)
(-1.27406e-05 0.00067717 -2.8393e-16)
(-0.00053671 0.000222146 -1.5723e-16)
(0.000520509 0.00017734 -5.19592e-17)
(-6.09838e-06 0.000771981 7.90287e-19)
(0.000631774 0.00025155 9.76724e-17)
(-0.000496216 0.00019972 2.95302e-16)
(-0.00054217 0.000205991 -5.09892e-17)
(-0.000549877 0.000191332 0)
(-0.000559924 0.000202903 2.29036e-16)
(0.0005201 0.000210667 -2.02299e-16)
(-0.00053738 0.000210517 -9.68027e-17)
(0.000517481 0.000205946 0)
(-1.23004e-06 0.000767868 -2.01876e-16)
(-0.000584264 0.000221333 1.20771e-16)
(0.000604841 0.000541866 -3.66334e-16)
(0.00053381 0.000203538 0)
(-3.41678e-06 0.000767943 0)
(0.000547744 0.000219506 5.94037e-21)
(2.30936e-06 0.00076565 -2.02114e-16)
(1.21551e-06 0.000767815 4.0191e-16)
(-0.000535746 0.000210396 4.98499e-17)
(-4.8048e-05 0.000791161 1.97711e-16)
(-2.02885e-06 0.00076513 0)
(-4.93591e-06 0.000768731 2.01159e-16)
(-0.000536173 0.000209071 0)
(0.000620593 0.000340584 0)
(2.54553e-06 0.000766737 0)
(-1.18585e-06 0.000766674 -2.01442e-16)
(-0.000534874 0.00021989 0)
(-2.76561e-06 0.00076719 4.05279e-16)
(-0.000541254 0.000205206 0)
(-1.12095e-06 0.000767152 -2.02423e-16)
(-0.000536783 0.000209251 -2.93187e-16)
(-1.3403e-06 0.000764615 0)
(-0.000531619 0.0002207 9.6704e-17)
(-0.000243408 0.000876724 -4.71377e-17)
(0.000565789 0.000258528 2.50262e-16)
(0.000585428 0.00021896 0)
(1.53904e-07 0.000766634 1.45304e-20)
(-3.00991e-06 0.000767736 -1.99393e-16)
(-0.000547738 0.000177081 -8.51761e-17)
(0.000512785 0.000230545 -2.05746e-16)
(0.000455681 0.000186244 0)
(0.000523549 0.000201653 3.10267e-16)
(-5.58235e-07 0.000766781 2.02002e-16)
(-0.000535176 0.000209777 0)
(-1.89034e-05 0.000775282 2.00567e-16)
(-5.65523e-07 0.00076498 0)
(-1.30614e-06 0.000766187 -2.04883e-16)
(-0.000538686 0.000209955 0)
(0.000528022 0.000232578 1.95269e-16)
(-0.000540507 0.000206783 2.68228e-21)
(1.76414e-07 0.000764748 2.02888e-16)
(0.000534759 0.000196281 -4.19355e-16)
(8.32169e-05 0.000448534 0)
(-2.77404e-06 0.000767663 0)
(0.000594309 0.000274799 1.46627e-16)
(0.000529346 0.00018309 0)
(-5.98375e-05 0.000822919 0)
(-0.000540724 0.000204487 -3.52295e-16)
(-2.0638e-05 0.000785475 0)
(-0.000537277 0.000210035 9.75584e-17)
(-0.000455433 0.000389245 -5.25382e-17)
(-0.000534779 0.000220025 2.01115e-16)
(1.87979e-07 0.000765432 -4.04631e-16)
(-0.000548442 0.000203152 5.41579e-17)
(-0.000531442 0.000220827 1.92966e-16)
(-9.40244e-07 0.000765853 0)
(-1.84429e-06 0.000764677 -1.98252e-16)
(0.000492501 0.000164432 0)
(2.52799e-07 0.000766366 -2.04209e-16)
(5.05689e-07 0.000765561 0)
(-3.60354e-05 0.000796099 2.01279e-16)
(-1.18229e-06 0.000680821 -2.27207e-16)
(-0.000532929 0.000234965 1.17408e-16)
(-1.10769e-05 0.000776643 9.81745e-20)
(0.000380995 0.000111945 0)
(-0.000556868 0.000202703 7.99861e-17)
(-0.000527333 0.000223391 4.68859e-17)
(1.64702e-06 0.000764352 4.05021e-16)
(-3.04008e-06 0.000767247 2.01604e-16)
(-0.000548033 0.000212637 -4.66005e-16)
(4.84484e-07 0.000765714 2.02686e-16)
(0.000480255 0.000148513 6.60021e-21)
(-3.95833e-06 0.000765804 2.00604e-16)
(-0.00054264 0.00020621 0)
(-0.000533941 0.00021483 5.12186e-17)
(-3.94526e-07 0.000765987 -1.45965e-20)
(0.000522129 0.000264432 2.10085e-16)
(-0.000539295 0.000210858 -1.02842e-16)
(-0.000531943 0.000219873 -8.99006e-17)
(-1.91868e-06 0.00076684 -2.01527e-16)
(0.000523692 0.000205586 3.51599e-18)
(-6.59596e-08 0.000766296 -1.46005e-20)
(-0.000544842 0.000205577 4.8087e-17)
(2.4582e-06 0.000764911 0)
(-0.000540918 0.000204205 0)
(-4.47942e-06 0.000766875 -2.01469e-16)
(3.8833e-07 0.000766269 2.02268e-16)
(0.000521221 0.000217726 -2.45282e-17)
(-0.000550472 0.000190218 2.19723e-16)
(-4.08648e-06 0.000765925 1.99774e-16)
(9.43993e-07 0.000764766 0)
(-0.000535807 0.0002179 0)
(-0.000533582 0.000219699 1.53404e-16)
(-0.00055205 0.000173402 0)
(-2.87922e-05 0.000471173 -1.0831e-16)
(-1.41166e-07 0.000766238 2.02713e-16)
(-0.000532296 0.000218987 -1.45374e-16)
(-0.000536007 0.000211485 0)
(-0.000533864 0.000202993 5.30133e-17)
(-7.12498e-06 0.000768489 1.9701e-16)
(3.14221e-08 0.000765088 -1.46735e-20)
(-0.000537899 0.000205562 -5.14133e-17)
(0.000311691 3.75532e-05 -2.18995e-16)
(-6.84216e-06 0.000770216 -2.00429e-16)
(-2.24284e-06 0.000767114 2.02107e-16)
(1.03721e-06 0.000765235 2.02985e-16)
(-1.45217e-07 0.000767833 -2.00158e-16)
(0.000639263 0.000325104 -1.9205e-16)
(-4.62407e-06 0.000765913 -2.01112e-16)
(-0.000541795 0.000204699 0)
(-0.000537428 0.000206421 0)
(0.000517729 0.000205114 0)
(-1.18761e-06 0.000765014 -2.03573e-16)
(-0.000531534 0.000220428 2.48145e-16)
(0.000521533 0.000193161 -1.57152e-16)
(-0.000512021 0.000208058 2.71356e-16)
(-0.00053726 0.000209379 -1.96918e-16)
(-0.000538048 0.000208083 -1.01264e-16)
(-0.00058042 0.000273143 -1.00455e-16)
(-2.34679e-06 0.000765325 -4.05799e-16)
(2.091e-06 0.000765129 8.46293e-20)
(-0.000536533 0.00022376 -5.80053e-17)
(-0.000538378 0.000215348 4.59963e-17)
(-0.000538272 0.000208891 -5.05273e-17)
(3.10291e-06 0.000766069 -2.02619e-16)
(6.11133e-07 0.000765118 4.10232e-16)
(-3.7961e-06 0.000765932 -2.02964e-16)
(6.43938e-07 0.000765917 -7.95379e-19)
(-0.00053729 0.000212434 4.913e-17)
(-2.69708e-06 0.000765394 0)
(3.68222e-06 0.000765676 -2.03787e-16)
(2.45117e-06 0.000764855 2.02753e-16)
(3.18729e-06 0.00076612 3.50526e-20)
(-0.000538091 0.000204951 1.0207e-16)
(-4.28566e-06 0.000770153 0)
(-0.000539405 0.000205126 -2.00618e-16)
(-0.000558674 0.000200945 0)
(0.000527556 0.000201578 -2.22462e-16)
(-3.39829e-07 0.000765561 -1.57907e-18)
(0.000500832 0.00020416 1.97905e-16)
(4.87911e-07 0.000765486 -1.45351e-20)
(-4.62805e-05 0.000785716 0)
(-3.12716e-05 0.000775891 -1.99274e-16)
(-0.000539811 0.000205736 0)
(-0.000543656 0.000205134 -9.86571e-17)
(5.29397e-06 0.000765054 0)
(-0.000535328 0.000207162 -2.14075e-16)
(-0.000537758 0.00021042 -1.06355e-16)
(0.000524806 0.0002095 2.13744e-16)
(2.96883e-07 0.000765426 -2.03087e-16)
(-4.4337e-06 0.000765953 -2.03163e-16)
(-0.000540391 0.000212296 5.55543e-17)
(-8.66177e-07 0.000765533 -2.0031e-16)
(-0.000532986 0.000202552 3.11589e-16)
(-3.63674e-06 0.000765242 -2.02293e-16)
(1.08253e-06 0.000765683 -1.45598e-20)
(-0.000542697 0.000240457 -2.36563e-16)
(-4.87732e-06 0.000765827 2.00632e-16)
(0.000528448 0.000199511 0)
(-0.000536974 0.000210152 -5.02516e-17)
(-2.54991e-07 0.000765404 3.18896e-18)
(-0.000541242 0.000202612 1.00776e-16)
(-1.3618e-07 0.000765143 -1.60076e-18)
(-0.00053724 0.000206206 5.0461e-17)
(-0.000512357 0.00018719 0)
(2.03984e-06 0.000765761 -1.46337e-20)
(-0.000585722 0.000247397 3.0092e-16)
(4.71573e-07 0.000766111 2.04473e-16)
(0.000495043 0.000243799 -5.87781e-17)
(-0.000527025 0.0002276 1.95208e-16)
(-1.60834e-07 0.000765607 2.04619e-16)
(0.000391044 0.000155277 2.15028e-16)
(-9.95534e-07 0.000765669 2.03324e-16)
(6.32064e-07 0.000765521 3.17275e-18)
(0.00044815 0.000164218 2.27235e-16)
(0.000479365 0.000170694 -2.12543e-16)
(0.000544946 0.000213288 0)
(-0.000586196 0.000239323 0)
(-4.47972e-06 0.000765756 -1.5911e-18)
(0.00049795 0.000190748 2.79974e-16)
(-4.3725e-06 0.000765271 -1.57975e-18)
(-0.000538317 0.000208645 -9.82438e-17)
(0.000494758 0.000162388 0)
(4.05709e-06 0.000765471 -4.05561e-16)
(6.80721e-07 0.000765478 -4.08076e-16)
(-0.000535637 0.00021613 0)
(-0.000538562 0.000204807 0)
(4.82179e-07 0.000766079 -4.05527e-16)
(-1.52738e-05 0.000773346 0)
(-0.00053276 0.000224188 -1.95482e-16)
(-1.02437e-05 0.00076986 -4.00521e-16)
(-0.000489754 0.000180496 0)
(0.000558426 0.000167314 5.24856e-17)
(2.79556e-08 0.000764659 -1.60743e-18)
(1.76935e-06 0.000766298 2.04314e-16)
(0.000418749 0.000261287 -7.03685e-18)
(2.11097e-07 0.000765451 -2.04796e-16)
(-0.000541608 0.000199909 1.57439e-16)
(-0.000587581 0.000268922 1.38986e-16)
(-4.81855e-06 0.000765627 2.01871e-16)
(-0.000540962 0.000202098 1.4575e-16)
(-8.39315e-07 0.000765816 2.04817e-16)
(-4.51942e-06 0.000765368 -2.02609e-16)
(-5.06866e-06 0.000765526 -2.01911e-16)
(-0.000533621 0.000217062 0)
(-0.000539712 0.000202845 -4.98689e-17)
(-5.38299e-07 0.000765335 -7.98798e-19)
(4.62645e-06 0.000765679 0)
(-0.000532861 0.000217259 1.98691e-16)
(-0.000537854 0.000202997 0)
(6.93881e-07 0.00076556 -2.03405e-16)
(-3.75953e-06 0.000767912 3.16237e-18)
(0.000523967 0.000203432 -2.14738e-16)
(7.04124e-07 0.000765532 -4.1086e-16)
(-0.00057837 0.000221732 3.41582e-16)
(-2.89046e-07 0.000765532 0)
(-2.21524e-07 0.000765632 2.02764e-16)
(-1.55501e-07 0.000765613 0)
(-9.61947e-10 0.000765456 2.02824e-16)
(5.88281e-07 0.00076544 -2.02311e-16)
(0.000436703 0.000175172 1.21379e-16)
(2.00059e-07 0.000765285 2.02453e-16)
(3.52532e-07 0.000767162 -1.46604e-20)
(-1.38661e-09 0.000765519 2.04806e-16)
(-5.26428e-06 0.000765653 4.04655e-16)
(-0.000539481 0.000206329 0)
(-0.000539488 0.000207301 -5.25283e-17)
(-4.5985e-06 0.000765469 0)
(-1.06804e-07 0.000765563 0)
(-5.58721e-07 0.000765224 -2.06616e-16)
(4.62383e-06 0.000765892 2.03103e-16)
(3.84499e-06 0.000765867 2.03868e-16)
(-0.000537929 0.000210461 2.577e-16)
(4.1291e-06 0.000765543 2.03299e-16)
(-2.96423e-07 0.000765733 -2.04798e-16)
(-7.24142e-07 0.000765592 0)
(-2.04869e-07 0.000765524 -1.4707e-20)
(-0.000539197 0.0002076 1.00377e-16)
(4.58223e-06 0.000765635 0)
(4.35129e-06 0.000765341 2.03441e-16)
(-1.83637e-06 0.000767001 -2.05261e-16)
(-0.000542853 0.000202337 0)
(-1.99382e-09 0.00076554 0)
(0.000528842 0.000203597 -2.13234e-16)
(-8.45144e-08 0.000766067 1.59882e-18)
(-7.19195e-08 0.000766262 -3.98547e-19)
(-3.69908e-06 0.000764894 -7.92084e-19)
(-5.11715e-06 0.000765391 1.46022e-20)
(-4.09606e-06 0.000765033 7.92731e-19)
(-0.000546692 0.000246477 -1.24098e-16)
(-4.90678e-06 0.000764973 2.03615e-16)
(2.57506e-06 0.000765693 0)
(-4.81452e-06 0.000765089 2.02167e-16)
(-4.88596e-06 0.000765252 -2.02513e-16)
(-5.16313e-06 0.00076558 -2.03453e-16)
(-0.000650447 0.000532686 -3.0847e-16)
(-0.000123351 0.000153084 -3.84301e-16)
(4.73541e-06 0.000765706 -2.03718e-16)
(-4.64601e-07 0.000765449 -2.03076e-16)
(5.30471e-08 0.000765617 -2.0303e-16)
(4.26184e-06 0.000765336 2.03503e-16)
(-0.000541991 0.00020446 -2.02477e-16)
(-5.4645e-06 0.000765272 2.02144e-16)
(-4.75907e-07 0.000765647 -2.02695e-16)
(-3.53491e-06 0.000767126 -4.03175e-16)
(-3.8651e-07 0.000765419 -1.60333e-18)
(5.05819e-06 0.000765421 2.02733e-16)
(0.000524765 0.000201057 2.13269e-16)
(-1.60828e-06 0.00076591 -2.02733e-16)
(2.98237e-07 0.00076553 -1.45909e-20)
(0.000559331 0.000230299 -2.6301e-16)
(-1.645e-07 0.000765494 0)
(-3.21268e-07 0.000765521 0)
(-5.45043e-06 0.00076541 -4.06262e-16)
(-0.00053936 0.000206879 1.00718e-16)
(1.04766e-07 0.000765068 -4.00501e-19)
(-6.32079e-06 0.000765665 2.12284e-19)
(0.000527349 0.000199964 1.41757e-17)
(-5.80448e-06 0.000766058 2.0308e-16)
(5.75227e-06 0.000765687 2.03053e-16)
(5.27921e-06 0.000765532 -2.02905e-16)
(1.31149e-06 0.0007655 -2.03476e-16)
(-6.17906e-06 0.00076573 1.45956e-20)
(-0.000559179 0.000196232 -2.15478e-16)
(-0.000451263 0.000170165 2.65483e-16)
(-6.03136e-07 0.00076475 -1.4675e-20)
(-3.64894e-07 0.000765426 -2.02594e-16)
(-0.00053478 0.000217861 5.11246e-17)
(4.86428e-07 0.000765614 -1.47074e-20)
(-5.69662e-06 0.000765141 8.05167e-19)
(5.71852e-06 0.000765408 -4.06051e-16)
(2.56166e-06 0.000764671 2.03838e-16)
(4.8443e-06 0.000765224 -2.03836e-16)
(4.77081e-06 0.000765384 -2.0383e-16)
(5.71165e-06 0.000765507 2.0313e-16)
(4.74097e-06 0.000765291 1.98683e-19)
(5.67217e-06 0.000765537 0)
(0.000528909 0.000199999 0)
(-4.60683e-06 0.000765606 2.04493e-16)
(-3.73547e-07 0.000766409 0)
(1.02644e-06 0.000766126 2.03741e-16)
(5.68205e-06 0.000765502 0)
(5.65612e-06 0.000765581 2.03198e-16)
(5.73417e-06 0.00076544 -9.91934e-20)
(6.3053e-07 0.000766085 1.99368e-16)
(5.15351e-06 0.00076585 0)
(-1.3878e-06 0.000766293 0)
(-4.76687e-06 0.000766194 -2.04713e-16)
(-0.000537892 0.000208323 -2.4659e-21)
(5.03461e-06 0.000765496 0)
(-1.13922e-05 0.000778578 0)
(4.95613e-06 0.00076551 0)
(-0.000526859 0.000200793 1.57173e-16)
(4.08457e-07 0.000765497 -2.02847e-16)
(-3.55785e-06 0.000767122 2.04686e-16)
(5.18287e-06 0.000765976 -9.9407e-20)
(-0.000525259 0.000221227 5.56776e-17)
(-0.000535274 0.000217276 -5.08329e-17)
(4.54259e-06 0.000765808 -2.03824e-16)
(-1.31127e-06 0.000764338 0)
(-1.93809e-07 0.000766914 -2.03905e-16)
(4.59061e-06 0.000765877 1.46485e-20)
(5.72095e-06 0.000765387 -2.03664e-16)
(-7.05271e-07 0.000763933 4.0505e-16)
(0.000512069 0.000166205 -3.65601e-16)
(0.000528569 0.000205525 -4.30927e-16)
(-7.62822e-07 0.000765787 4.0726e-16)
(0.000521001 0.000204853 0)
(4.48687e-06 0.000765881 0)
(5.8046e-06 0.000765299 -3.97006e-19)
(-0.000551993 0.000218829 -1.84025e-16)
(-0.000536925 0.000220183 1.05907e-16)
(3.61739e-07 0.000765209 -1.00206e-19)
(4.52466e-06 0.000765953 2.03876e-16)
(4.95674e-07 0.00076553 -2.03135e-16)
(-0.000490614 0.00046983 1.02779e-16)
(4.28574e-06 0.000765859 7.96865e-19)
(-5.56188e-06 0.000765929 2.03306e-16)
(-4.55857e-07 0.000766613 2.04076e-16)
(-0.000613434 0.000314161 -2.01504e-16)
(4.4266e-06 0.000766115 0)
(-3.14787e-07 0.000765608 4.01583e-19)
(-1.15427e-06 0.000766366 -2.0311e-16)
(-0.000539722 0.000204635 0)
(0.000552747 0.000154656 3.85792e-16)
(-0.000532153 0.000222563 5.36689e-17)
(4.23317e-06 0.00076594 -7.96996e-19)
(5.99765e-07 0.000765777 -2.03834e-16)
(-4.94843e-06 0.000765079 -2.03661e-16)
(-0.000537061 0.000215847 3.04101e-16)
(4.2585e-06 0.000766201 -2.04094e-16)
(-6.53514e-06 0.000765358 7.93039e-19)
(3.42231e-07 0.000765193 2.00596e-19)
(5.294e-06 0.000765354 0)
(-2.50854e-07 0.000766726 0)
(5.35096e-06 0.000765287 0)
(5.56959e-07 0.000765829 0)
(-0.000538017 0.000204796 -5.05816e-17)
(-5.83031e-06 0.000765072 0)
(-3.79495e-07 0.000765563 0)
(0.000567823 0.000267473 1.57513e-16)
(4.0687e-07 0.000765809 0)
(-3.1214e-05 0.000796647 0)
(-1.55549e-07 0.000766748 4.08019e-16)
(2.8437e-07 0.000765197 0)
(0.000524506 0.000191996 -4.81154e-17)
(0.000527258 0.000204799 0)