/*--------------------------------*- C++ -*----------------------------------*\
  =========                 |
  \\      /  F ield         | OpenFOAM: The Open Source CFD Toolbox
   \\    /   O peration     | Website:  https://openfoam.org
    \\  /    A nd           | Version:  12
     \\/     M anipulation  |
\*---------------------------------------------------------------------------*/
FoamFile
{
    format      ascii;
    class       surfaceScalarField;
    location    "0.04";
    object      phi;
}
// * * * * * * * * * * * * * * * * * * * * * * * * * * * * * * * * * * * * * //

dimensions      [0 3 -1 0 0 0 0];

internalField   nonuniform List<scalar> 
6438
(
-6.61996e-09
8.11497e-07
-8.04877e-07
-7.19318e-09
9.42517e-07
-9.35324e-07
-8.81468e-07
-1.48212e-07
1.02968e-06
8.35318e-07
-9.17068e-07
8.17501e-08
1.2888e-06
-1.00596e-06
-2.82836e-07
2.98549e-07
9.90251e-07
-9.96207e-07
1.14738e-07
-8.71041e-07
8.63848e-07
9.39186e-07
-1.12391e-06
1.84727e-07
8.74158e-07
-1.0229e-06
1.4874e-07
-8.46422e-07
1.02597e-06
-1.79546e-07
2.04759e-07
-9.30428e-07
7.25669e-07
-1.04105e-06
1.94624e-07
8.02425e-07
3.70374e-07
-1.1728e-06
7.55027e-07
-7.61647e-07
-4.11172e-08
8.8279e-07
-8.41673e-07
-1.1144e-06
1.07919e-06
3.5216e-08
-8.43749e-07
1.02216e-06
-1.78415e-07
-1.03894e-06
1.9519e-07
3.31271e-07
7.03407e-07
-1.03468e-06
-2.42542e-07
-1.58409e-07
4.00951e-07
-5.22096e-08
9.2787e-07
-8.75661e-07
-8.56974e-07
-1.40499e-07
9.97473e-07
-1.04815e-06
4.61548e-07
5.86605e-07
-9.14071e-07
8.61862e-07
-8.1116e-07
9.88375e-07
-1.77214e-07
-9.85294e-07
1.28321e-07
9.40333e-07
-7.35574e-07
-8.52714e-07
-1.55458e-07
1.00817e-06
-1.02688e-06
2.15718e-07
7.93766e-07
-9.9043e-07
1.96664e-07
4.07505e-09
-9.68396e-07
9.64321e-07
9.45603e-07
-9.49694e-07
4.09119e-09
-9.37311e-07
1.59052e-07
7.78258e-07
-1.27002e-06
2.05085e-07
1.06493e-06
8.91218e-07
-8.87143e-07
8.96853e-07
-6.15347e-08
5.83451e-07
8.15688e-07
-1.39914e-06
-2.83169e-07
1.08559e-06
-8.34382e-07
9.17955e-07
-8.35736e-08
-9.71182e-07
9.61628e-07
9.55426e-09
-4.04555e-07
7.35827e-07
8.67291e-07
6.86655e-09
-1.04185e-06
1.02095e-06
2.08984e-08
9.36084e-07
-1.42318e-07
-6.90722e-07
6.49605e-07
-1.21023e-06
2.0427e-07
9.17862e-07
8.88429e-08
-1.0067e-06
-7.18815e-07
-2.18496e-07
-1.30291e-07
-8.60742e-07
9.77575e-07
-1.16833e-07
-6.45809e-07
9.26457e-07
-2.80649e-07
9.29328e-07
-9.29328e-07
2.90275e-07
7.06413e-07
9.2617e-08
-7.99031e-07
4.12655e-07
1.98841e-07
-6.11496e-07
7.87264e-07
1.60257e-07
-9.47521e-07
7.60608e-07
-2.9906e-07
-4.40757e-07
-7.69477e-07
-8.31696e-09
8.18676e-07
-8.10359e-07
-1.01156e-06
1.01156e-06
-1.0457e-06
1.05508e-06
-9.38473e-09
4.18922e-08
7.7997e-07
-8.21862e-07
2.87715e-09
-9.55356e-07
9.52479e-07
8.86123e-07
-8.83246e-07
-9.65455e-07
1.12741e-07
-9.68032e-07
-7.3816e-08
-8.29178e-07
9.11262e-07
-8.2084e-08
9.22222e-08
7.96885e-07
-8.89107e-07
-9.78428e-07
9.41206e-07
3.72212e-08
9.54198e-07
-9.54198e-07
8.88166e-07
5.102e-08
-5.8219e-07
-4.40707e-07
8.29224e-07
1.76852e-07
-1.00608e-06
-8.15243e-07
-1.55939e-07
7.23706e-07
5.60712e-07
-1.28442e-06
-1.12105e-06
7.16499e-07
-7.15792e-07
-4.05263e-07
9.8013e-07
-1.50905e-07
5.8833e-07
-1.75675e-07
7.99999e-07
8.84309e-08
-8.8843e-07
-9.85675e-07
-6.00203e-08
-1.43164e-07
-2.40393e-07
-7.71162e-07
1.06887e-06
-1.06887e-06
-7.07991e-07
-2.70436e-07
-6.56126e-08
-1.2044e-06
-9.2176e-07
9.19047e-07
2.71306e-09
3.319e-08
-9.36031e-07
9.02841e-07
-1.02779e-07
9.02778e-07
9.2299e-07
2.26131e-08
-9.64445e-07
-1.49959e-07
-9.7327e-07
9.96574e-07
-2.33044e-08
1.01748e-06
-5.68782e-07
-4.48701e-07
9.13537e-07
-8.80347e-07
1.94469e-08
1.02517e-06
-5.21298e-07
-5.03874e-07
5.81081e-07
4.36401e-07
9.3994e-07
-9.3994e-07
-7.20923e-07
1.03265e-06
-3.11722e-07
-9.0518e-07
4.44381e-08
-1.24153e-07
-7.32287e-07
8.5644e-07
-8.4884e-07
3.3597e-08
-9.09848e-07
1.88925e-07
7.82052e-07
1.70264e-07
-9.52317e-07
-5.98612e-08
8.41913e-07
-8.19756e-07
9.46754e-07
-1.26998e-07
-8.67921e-07
3.35387e-08
6.02807e-07
4.22365e-07
9.05665e-07
-1.79996e-07
3.86743e-08
8.90654e-07
-7.82557e-07
-6.62831e-08
8.16653e-07
1.76275e-07
-9.92928e-07
-4.51786e-07
-3.91296e-07
8.43082e-07
5.95219e-07
-7.78316e-08
-5.17387e-07
-9.68396e-07
1.98e-07
9.66409e-07
-1.16441e-06
-4.5064e-07
2.08098e-07
9.67192e-07
2.11829e-08
1.05228e-06
-5.46017e-07
-5.06262e-07
3.55312e-07
6.96966e-07
9.72682e-07
-1.56029e-07
1.19497e-06
-6.11519e-07
-8.84309e-07
3.9115e-09
8.80397e-07
-1.26675e-06
1.27247e-07
1.1395e-06
-1.49856e-08
-8.80432e-07
8.95417e-07
9.66137e-07
5.48129e-08
-7.46436e-07
7.38119e-07
-8.90503e-07
9.0814e-07
-1.76373e-08
9.02685e-07
-9.1767e-07
9.3152e-07
-9.3152e-07
9.14827e-07
2.76898e-08
9.18082e-07
-2.11668e-07
9.05545e-07
-8.63653e-07
-7.97166e-07
6.73013e-07
8.68599e-09
8.78977e-07
-8.87663e-07
1.03631e-06
-7.23002e-07
-3.13312e-07
-9.55356e-07
-1.41981e-08
1.10502e-08
-8.82091e-07
-8.81077e-07
5.1899e-08
9.49773e-09
8.8172e-07
8.53415e-07
-7.61193e-07
-8.79724e-07
5.99685e-08
8.9183e-07
-2.45387e-08
-3.2423e-08
7.76929e-07
-7.44506e-07
6.14625e-07
4.21689e-07
-9.15071e-07
1.98001e-07
7.1707e-07
9.30097e-07
-3.63975e-09
-1.23361e-06
1.10898e-07
1.12272e-06
-1.28297e-08
-8.75901e-07
8.88731e-07
5.8132e-07
1.38991e-08
5.59952e-08
8.74102e-07
8.66505e-07
7.38274e-08
8.97586e-07
-9.10416e-07
-9.33723e-07
-3.07218e-08
9.55444e-07
-1.02863e-06
7.31845e-08
-8.51681e-07
-3.26272e-08
-1.03745e-06
4.5046e-07
5.8699e-07
-8.40515e-10
8.96252e-07
3.16182e-08
-8.45083e-07
9.82139e-07
-1.37056e-07
-9.26534e-07
8.00511e-07
1.26024e-07
-1.26069e-07
3.24654e-07
-1.98585e-07
-2.91264e-07
-7.35614e-07
-9.36031e-07
-7.76767e-09
8.9389e-07
2.76951e-07
7.55694e-07
-1.54164e-08
-9.09436e-07
-4.63512e-09
-1.95384e-08
-9.93803e-07
8.38966e-07
1.54837e-07
-5.8442e-08
7.4156e-07
1.46606e-07
1.45326e-06
-6.3757e-07
-3.06285e-07
-7.32654e-07
9.10759e-07
1.22308e-08
-7.79318e-07
3.27532e-07
-3.53707e-07
-5.53903e-07
9.0761e-07
-3.13403e-07
-7.27643e-07
-5.07849e-07
1.23155e-06
-9.40691e-07
3.12549e-08
-8.8833e-07
8.91807e-07
-3.47718e-09
-7.3058e-07
6.98157e-07
-1.08547e-08
-8.70617e-07
8.81471e-07
-9.57398e-07
1.67067e-08
7.97468e-07
-9.48451e-07
1.50982e-07
8.89788e-07
-9.00643e-07
7.93184e-07
-2.99454e-07
-4.9373e-07
-1.2014e-06
4.29386e-07
7.72013e-07
8.13514e-07
7.83158e-08
6.70804e-07
4.08384e-07
1.9617e-07
8.72703e-07
-2.35768e-07
-8.33106e-07
-9.69774e-07
9.61032e-07
8.74248e-09
-9.67082e-07
-2.69197e-09
-9.62501e-07
-4.58065e-09
3.63395e-09
2.50797e-07
-1.40038e-06
1.14959e-06
-1.03728e-06
1.23528e-06
8.19506e-07
-8.1082e-07
8.76779e-07
3.67584e-08
7.14382e-08
7.21746e-07
-8.80432e-07
-7.97633e-07
7.9413e-07
9.86545e-08
-8.92784e-07
-4.51041e-09
-1.91154e-07
1.39681e-06
-1.20566e-06
1.32456e-06
-9.54182e-07
-4.02658e-07
6.01499e-07
-2.56307e-07
-7.81144e-07
-6.91741e-07
-5.09657e-07
-8.79296e-07
-5.44272e-08
-8.8672e-07
8.86627e-07
9.23603e-11
-1.39462e-07
8.31016e-07
-6.91553e-07
-9.5296e-07
9.59347e-07
-6.38785e-09
-9.42796e-07
-1.01639e-08
-1.21079e-06
7.71805e-08
1.13361e-06
-8.44255e-07
-5.47924e-08
8.99048e-07
9.49823e-07
9.52481e-09
-1.6857e-07
-1.03528e-06
3.80843e-07
6.54439e-07
5.74909e-09
-5.48403e-07
-4.8688e-07
-1.26788e-08
-9.80882e-09
-8.65186e-07
8.74995e-07
-8.88521e-07
4.42653e-08
8.0278e-07
1.07979e-07
9.24776e-07
-8.86101e-07
8.80754e-07
-8.90563e-07
8.77353e-07
2.53316e-08
4.31611e-07
8.92946e-07
9.0406e-07
-1.625e-07
-7.18944e-08
-1.19486e-06
-5.17747e-08
7.23273e-07
-6.71498e-07
-9.38475e-07
-4.32108e-09
-9.38276e-07
-1.98472e-10
9.45507e-07
-9.38477e-07
-7.02971e-09
9.35632e-07
9.87547e-09
-8.75901e-07
2.15273e-07
-2.94361e-07
7.9088e-08
-1.05765e-06
6.20168e-07
4.37481e-07
4.73622e-07
-9.49614e-07
4.75993e-07
-8.28471e-07
-7.67088e-08
-8.8375e-07
8.79417e-07
4.33265e-09
-9.17859e-07
8.84623e-07
3.3236e-08
-7.32292e-08
9.39456e-07
-8.66227e-07
-9.11643e-07
2.31221e-08
-1.0125e-06
1.2633e-06
-9.30936e-08
-8.21977e-07
-9.51783e-07
8.78554e-07
-7.45963e-07
-6.81551e-08
8.14118e-07
-6.94527e-07
9.29844e-07
5.788e-09
-6.33965e-07
-1.69873e-07
1.88633e-07
-1.87604e-08
-8.43258e-09
3.46094e-08
-1.20737e-06
1.17276e-06
-6.70763e-07
-3.25443e-07
-9.4162e-07
9.23183e-07
1.84365e-08
-9.27188e-07
-1.44312e-08
-3.32446e-07
2.06377e-07
8.75751e-07
2.18351e-08
9.29969e-07
-1.49999e-07
9.26874e-07
-9.26367e-07
-5.07649e-10
-2.41776e-09
-8.58354e-07
8.60772e-07
9.70439e-07
-6.93488e-07
-1.1603e-08
9.58656e-07
5.44693e-07
-1.50335e-06
9.48805e-07
-9.48805e-07
1.49029e-07
8.62526e-07
-3.3488e-07
-5.94448e-07
-7.57615e-07
9.13169e-07
-1.55554e-07
-9.86949e-08
-8.19164e-07
8.76138e-07
-8.78556e-07
-8.37214e-07
1.27824e-08
8.24432e-07
1.6159e-07
-8.50672e-07
6.89082e-07
-8.81035e-07
8.71542e-07
9.49303e-09
5.64393e-07
4.06046e-07
-2.71253e-08
-1.42748e-07
-5.29724e-07
-5.27925e-07
-2.0639e-07
-9.40076e-07
9.4993e-08
-8.70617e-07
7.88551e-07
1.66893e-07
-7.3008e-07
-8.21969e-07
7.60057e-08
-8.39133e-07
4.85426e-07
9.52559e-07
-7.74078e-07
-1.78481e-07
1.61818e-07
7.62958e-07
-6.68003e-07
-3.17292e-07
-9.29802e-07
9.29802e-07
9.31736e-07
-8.96293e-07
-3.54428e-08
5.28771e-08
-8.81348e-07
-7.44133e-07
8.41035e-07
-9.69019e-08
-2.9353e-07
1.35121e-07
8.67509e-07
-8.7182e-07
4.31032e-09
9.13461e-07
9.72174e-09
9.21574e-07
1.01624e-08
1.39027e-06
-8.87516e-07
-2.41267e-08
-7.78399e-07
6.38937e-07
8.74249e-07
1.55394e-08
9.1897e-07
-9.1439e-07
-4.58011e-09
-8.21827e-09
-1.29052e-08
9.66996e-08
-7.87809e-07
6.91109e-07
-2.66237e-08
-1.20699e-06
2.88876e-07
6.41613e-08
-8.08294e-07
-8.78585e-07
8.64985e-07
1.35999e-08
8.75426e-07
-7.79578e-08
-4.06427e-07
-5.43267e-07
-1.22843e-06
9.0887e-08
-4.93545e-07
-1.45946e-07
3.82054e-09
9.02297e-07
-8.03642e-07
-8.65186e-07
-8.66421e-07
2.28277e-08
8.43594e-07
1.22225e-06
1.74562e-07
7.0428e-07
3.50801e-07
8.53171e-07
-3.79549e-07
8.89376e-07
-5.04097e-08
2.0486e-06
-1.50391e-06
-1.40038e-06
-4.49993e-07
-4.76541e-07
-1.15506e-08
9.49962e-07
-8.90039e-07
-5.99229e-08
9.01066e-07
2.05073e-08
1.04458e-07
-8.62073e-07
-6.38837e-07
7.35536e-07
8.72808e-07
7.94627e-09
6.78679e-07
3.0145e-07
9.1585e-07
3.41123e-08
9.15227e-07
-9.02203e-07
-1.30236e-08
-4.13688e-07
-5.76742e-07
-4.11379e-08
8.41648e-07
1.53952e-08
-9.69593e-07
7.58583e-07
-5.96994e-07
-1.33236e-08
1.89332e-08
7.40854e-07
-8.04393e-07
6.35393e-08
1.36859e-07
7.7631e-07
1.23974e-06
-1.20513e-06
4.32687e-07
5.44888e-07
-8.7579e-07
8.66457e-07
9.33205e-09
-2.00071e-08
-5.104e-07
2.80695e-07
2.29705e-07
-9.36664e-09
9.50146e-07
-9.50146e-07
1.07672e-06
-6.25596e-07
-4.51125e-07
-7.82725e-07
-1.34343e-07
6.59175e-07
3.13507e-07
9.10815e-07
5.03486e-09
-8.58354e-07
8.51506e-07
5.58171e-09
-8.57087e-07
6.96252e-07
9.69593e-07
-9.64321e-07
2.43812e-08
1.13257e-06
-1.00532e-06
8.74989e-07
-9.27622e-07
8.71366e-07
-1.986e-08
7.85464e-07
-8.51606e-07
8.47505e-07
4.10177e-09
3.8723e-08
6.83361e-07
-7.22084e-07
-7.72989e-07
6.38957e-07
-5.76374e-08
8.07083e-07
1.10872e-07
-7.99938e-09
-7.4918e-07
-1.30544e-07
-1.12451e-06
7.10822e-07
2.619e-09
-8.543e-07
-9.08761e-07
-4.3022e-08
1.21475e-06
-6.54037e-07
8.61228e-09
-1.58444e-07
9.65828e-07
-8.07384e-07
-4.11992e-07
-9.84081e-08
8.4791e-07
-8.56677e-07
8.76668e-09
-8.74989e-07
8.69782e-07
3.77443e-07
5.37379e-07
-9.14822e-07
9.06858e-07
-1.66004e-07
7.32724e-08
8.09518e-07
8.94629e-07
8.75101e-08
9.67789e-08
1.18494e-07
-9.52479e-07
2.09592e-08
-7.54483e-07
8.58941e-07
-4.37569e-07
5.28456e-07
8.07501e-08
-7.92612e-07
7.11861e-07
-6.78661e-09
1.42831e-08
-7.90562e-07
-9.01591e-07
8.84628e-07
1.69637e-08
-8.62579e-07
8.85008e-08
5.64451e-07
5.1227e-07
-4.8441e-07
9.93521e-07
-5.09111e-07
9.98969e-07
-9.3239e-07
-6.65784e-08
2.56362e-08
6.13321e-07
-8.57324e-07
-9.09694e-09
8.70147e-07
1.21862e-09
4.27401e-07
-1.46706e-07
1.10756e-06
-9.96665e-07
7.86685e-07
1.24577e-07
4.94169e-08
-8.83586e-07
1.34406e-07
1.33108e-08
-7.67794e-07
9.86146e-07
-7.97221e-07
8.03184e-07
-4.86736e-08
-7.64781e-07
8.13455e-07
-8.66292e-07
9.02665e-07
-1.08582e-08
-1.31202e-06
1.06362e-07
-5.77684e-09
8.49496e-07
1.69614e-08
-7.99422e-07
-8.8094e-07
8.7749e-07
3.45055e-09
1.05481e-06
-6.13723e-07
-4.4109e-07
-7.36948e-07
-6.69469e-08
8.03894e-07
-1.67249e-09
-8.67239e-07
1.88136e-08
-9.49814e-08
9.29566e-07
-8.34585e-07
-8.52169e-07
8.5648e-07
-1.23741e-06
-1.80179e-07
-1.19623e-06
1.16594e-06
3.029e-08
6.79252e-07
3.46716e-07
7.97328e-07
7.27047e-08
-8.70033e-07
8.48318e-07
-3.48044e-08
6.80574e-07
3.41589e-07
-6.05761e-07
1.9377e-07
-8.59374e-07
7.44411e-07
-8.4719e-07
-1.15198e-06
1.14785e-06
4.12371e-09
1.03813e-06
-8.33047e-07
8.49977e-07
-2.47227e-09
5.27552e-08
-7.92782e-07
7.40027e-07
-1.28377e-08
-1.13914e-06
1.02962e-06
-1.02962e-06
-4.69636e-07
8.83062e-07
-4.13426e-07
-8.499e-07
8.499e-07
8.69876e-07
-7.68399e-07
-1.01477e-07
8.03332e-07
1.93242e-07
9.05361e-07
-7.43543e-07
8.96777e-07
-1.01497e-08
-6.99417e-07
-1.12828e-07
8.12245e-07
-1.1381e-06
1.14212e-06
-4.01538e-09
1.05189e-06
-6.3309e-07
-4.18799e-07
1.53177e-07
7.52184e-07
-1.15002e-06
1.14418e-06
5.84342e-09
-3.1901e-10
-8.60052e-09
1.13476e-06
-1.12616e-06
-1.14585e-06
1.14585e-06
-1.37261e-08
8.61636e-07
1.23063e-06
-1.14653e-06
-8.41052e-08
-1.15081e-06
1.14221e-06
1.1496e-06
-1.14382e-06
-5.77726e-09
-8.37663e-07
-1.90139e-08
9.80462e-07
-1.33363e-08
1.14217e-06
-1.12883e-06
1.1425e-06
-1.14468e-06
2.18001e-09
-8.64833e-07
1.13645e-06
-1.69824e-09
-8.80038e-07
8.72362e-07
7.67606e-09
-1.13625e-06
1.14048e-06
-4.23092e-09
8.70813e-07
-8.47986e-07
-1.14776e-06
1.13442e-06
8.81151e-07
-2.81099e-07
4.17673e-07
5.48155e-07
-6.34871e-07
-4.89638e-07
-1.14377e-06
1.14377e-06
-1.14905e-06
-1.76165e-09
1.06401e-06
-1.96407e-07
-8.67601e-07
-7.46977e-07
5.06584e-07
2.89402e-08
1.13831e-06
-1.14191e-06
3.60245e-09
8.37945e-07
-8.37908e-07
-3.71671e-11
1.17381e-06
-1.14318e-06
-3.06315e-08
1.13219e-06
6.12237e-09
1.13016e-06
1.20078e-08
-2.4456e-09
-8.47454e-07
-1.04331e-06
5.75576e-07
4.6773e-07
-8.46236e-07
8.51818e-07
1.1359e-06
-3.71565e-09
1.19109e-07
7.70266e-07
6.10265e-07
-2.32822e-07
-1.14616e-06
-1.5942e-09
9.34638e-07
5.53811e-07
-9.45108e-07
-1.45204e-07
-1.16682e-06
8.54604e-07
-8.6022e-07
5.61547e-09
-3.97761e-08
-1.15645e-06
8.89532e-07
-1.01149e-08
9.87276e-07
-6.7474e-07
-3.12536e-07
-8.55609e-07
1.13769e-06
-1.13769e-06
8.15488e-07
1.22175e-08
-8.27705e-07
8.77582e-07
-1.14012e-06
1.13859e-06
1.53111e-09
1.13183e-06
-1.14296e-06
1.11331e-08
7.15716e-07
-9.51484e-07
-3.1549e-09
-1.13205e-06
1.1352e-06
1.12942e-06
-1.13257e-06
-3.72381e-08
1.20317e-06
-9.01493e-07
9.78673e-07
-1.0253e-06
7.11894e-07
-1.80276e-08
1.16588e-06
9.77634e-08
5.03736e-07
1.2037e-08
1.05197e-06
-2.87772e-09
9.09428e-07
-9.0655e-07
-7.94062e-09
-1.14281e-06
-7.21599e-09
9.39899e-07
-9.48302e-08
-8.45069e-07
-1.13521e-06
1.13521e-06
6.636e-07
-5.70983e-07
-1.14466e-06
1.14159e-06
3.06916e-09
8.74953e-07
-8.74953e-07
8.50691e-07
-1.27459e-08
1.13678e-06
-1.13862e-06
1.84035e-09
-1.09656e-06
2.98927e-07
1.12581e-10
-8.44882e-07
8.44769e-07
9.15859e-07
-7.71824e-09
1.139e-06
1.05989e-08
6.91166e-07
1.17707e-07
-8.08874e-07
1.14264e-06
-6.18834e-09
8.89771e-07
-8.89771e-07
1.1354e-06
-1.13135e-06
-4.05512e-09
-8.69585e-07
8.62575e-07
7.00967e-09
1.14398e-06
-1.14055e-06
-3.43523e-09
-1.13717e-06
1.13717e-06
1.70491e-07
7.97209e-07
2.70094e-08
-8.24219e-07
-1.14475e-06
1.1417e-06
3.04904e-09
-4.41994e-09
-8.58203e-07
8.53364e-07
1.23991e-09
1.06357e-06
-1.9904e-07
-8.64534e-07
7.35381e-07
1.13251e-06
-1.13567e-06
3.16148e-09
8.76694e-07
9.34442e-07
1.31653e-08
8.02323e-07
1.16139e-06
-2.23897e-08
1.12865e-06
3.86013e-09
8.31592e-07
-8.31592e-07
-4.37569e-07
1.14855e-06
-1.13946e-06
-3.50484e-09
1.139e-06
-1.13474e-06
-4.25419e-09
2.26876e-08
-1.16084e-06
1.13815e-06
1.19968e-07
-1.14959e-06
-1.14266e-06
1.14064e-06
2.01825e-09
8.24961e-07
-8.24735e-07
-2.25356e-10
8.69876e-07
-7.67398e-07
7.67398e-07
1.131e-06
-2.35092e-09
-8.48183e-07
-7.92782e-07
7.97328e-07
8.81041e-07
-9.49864e-09
-2.64262e-09
9.02079e-08
-1.12316e-06
1.13872e-06
-1.13919e-06
4.70594e-10
2.63915e-08
7.98569e-07
2.691e-08
9.12989e-07
8.56518e-07
-5.82757e-09
-1.14024e-06
1.13882e-06
1.41922e-09
1.13008e-06
-1.13347e-06
3.38449e-09
-1.139e-06
-5.66151e-09
1.13605e-06
-1.13296e-06
-3.09574e-09
8.58426e-07
1.65266e-08
1.13656e-06
5.02541e-09
-1.51839e-09
1.13417e-06
4.65217e-09
-1.93846e-10
-8.40785e-07
-1.15147e-06
1.23317e-08
-8.52252e-07
8.52252e-07
1.16779e-08
1.0519e-06
-8.66004e-07
1.66586e-07
6.17021e-09
1.13633e-06
4.72044e-08
-8.22048e-07
7.74843e-07
8.25268e-09
1.1376e-06
1.08543e-06
-1.18377e-06
8.58855e-07
3.09158e-08
1.12942e-06
-8.69898e-09
8.05908e-07
-8.28057e-07
3.32164e-09
8.16385e-07
-1.25219e-07
-1.13226e-06
1.13226e-06
-1.13826e-06
-6.49045e-09
7.68399e-07
-7.96358e-07
2.79595e-08
-1.1376e-06
8.37484e-07
-8.37371e-07
1.13598e-06
5.72563e-09
-1.13642e-06
-1.01182e-06
7.05532e-07
-1.14152e-06
1.13957e-06
1.94515e-09
7.74559e-07
7.37593e-08
8.44882e-07
5.01797e-09
-1.1285e-06
1.13642e-06
-7.91191e-09
-8.59657e-07
8.52327e-07
7.32933e-09
-1.1321e-06
3.59353e-09
8.54674e-07
-1.30967e-09
4.62246e-08
-8.81749e-07
8.35524e-07
1.13192e-06
-1.13705e-06
5.12926e-09
9.21226e-07
-9.64248e-07
1.13177e-06
-1.13165e-06
-1.19849e-10
-7.21441e-07
7.21441e-07
-8.90994e-07
8.90994e-07
-1.13045e-06
-1.65157e-09
-5.28456e-07
6.2622e-07
-1.13376e-06
1.13208e-06
1.68321e-09
9.10011e-09
1.13467e-06
7.0697e-07
-6.2622e-07
-7.0697e-07
7.45693e-07
7.48292e-07
-8.6112e-07
1.03682e-06
-6.12909e-07
-4.23915e-07
-1.13776e-06
-4.9059e-09
-1.6369e-07
-7.45693e-07
9.09383e-07
1.13627e-06
4.37082e-09
-8.61787e-07
7.95497e-07
1.13969e-06
-1.13735e-06
-2.33733e-09
-1.13281e-06
-8.54045e-07
8.59668e-07
-2.8076e-08
-3.10084e-09
1.13901e-06
1.13404e-06
-8.44769e-07
-1.16121e-06
-6.82336e-07
8.70033e-07
-1.87697e-07
-1.12787e-06
-4.17899e-09
1.13272e-06
1.4527e-09
6.60605e-07
-6.75635e-07
1.50296e-08
1.32318e-09
7.96358e-07
-8.28317e-07
3.19586e-08
5.25464e-07
5.29348e-07
-1.13725e-06
-4.26417e-09
-8.62861e-07
1.12774e-06
-1.12677e-06
-9.697e-10
1.13584e-06
3.73709e-09
-1.13923e-06
1.13797e-06
1.25784e-09
8.72068e-07
8.58426e-07
-1.13068e-06
1.12812e-06
2.556e-09
1.13866e-06
-1.13813e-06
-5.29714e-10
-8.47979e-07
8.58855e-07
1.13013e-06
-1.13013e-06
4.62491e-09
1.13955e-06
-7.13356e-07
-1.52647e-07
1.13242e-06
-5.02642e-10
-1.45013e-07
7.73114e-07
-6.28101e-07
1.12957e-06
-1.1286e-06
-9.72732e-10
3.50813e-09
1.13418e-06
1.12749e-06
-1.12854e-06
1.04964e-09
-1.14079e-06
-1.13661e-06
-6.84988e-07
1.03116e-09
1.13756e-06
-1.34692e-09
-1.13393e-06
1.13527e-06
-1.1302e-06
1.12769e-06
2.50537e-09
-1.13722e-06
-2.00849e-09
-8.60951e-07
-8.32365e-07
4.3081e-09
1.13601e-06
1.96572e-09
-1.12916e-06
1.12868e-06
4.82141e-10
-1.12992e-06
4.34443e-09
1.12558e-06
1.1369e-06
2.7938e-09
-1.13333e-06
-4.02177e-09
-8.27762e-07
-3.83017e-09
1.13635e-06
-1.13703e-06
6.80468e-10
1.12993e-06
-1.13127e-06
-1.13194e-06
1.13036e-06
1.57337e-09
1.1291e-06
-1.12818e-06
-9.13827e-10
8.51645e-07
6.07006e-10
1.1367e-06
1.95723e-09
-1.13508e-06
-3.04996e-09
-1.1392e-06
8.59668e-07
-1.12972e-06
1.12743e-06
2.28663e-09
7.50029e-07
-7.98703e-07
-1.12653e-06
1.1308e-06
-4.26828e-09
1.13008e-06
-1.13179e-06
1.71205e-09
-2.89388e-09
-1.13609e-06
-1.13453e-09
-3.01794e-09
-1.00317e-06
7.11904e-07
-1.98951e-09
1.12993e-06
-1.92064e-09
-1.24743e-09
-1.13708e-06
9.90754e-10
4.36428e-07
9.54862e-07
-1.39129e-06
-2.35667e-07
1.13633e-06
2.58415e-11
-1.13418e-06
2.16988e-09
1.13304e-06
-1.13484e-06
-2.19381e-09
-8.54615e-07
-1.13823e-06
1.15093e-09
4.12191e-09
1.13266e-06
-1.6214e-10
5.47641e-09
-1.11903e-06
1.11356e-06
1.13793e-06
-1.13734e-06
-5.84411e-10
-8.69601e-07
1.56245e-07
1.13574e-06
-1.13376e-06
-1.98727e-09
-1.13645e-06
-8.42897e-07
-4.47658e-08
1.12887e-06
-1.12797e-06
-9.01503e-10
6.01062e-09
-1.12009e-06
1.11408e-06
-1.13764e-06
1.13548e-06
2.16138e-09
-8.60792e-07
8.53324e-07
7.46834e-09
9.60606e-10
-1.13761e-06
-6.1705e-10
-8.6639e-07
1.79632e-07
6.86758e-07
-1.13615e-06
-1.49541e-09
1.13753e-06
3.99715e-10
-1.13564e-06
-1.69983e-09
-4.6615e-09
-1.13768e-06
6.93987e-11
-8.18583e-07
-9.33939e-08
9.11977e-07
6.53786e-07
4.84903e-09
-1.13304e-06
8.53869e-07
-1.54223e-09
-1.12883e-06
1.12883e-06
-2.19995e-09
1.13699e-06
5.38552e-10
-9.11249e-10
1.81876e-09
1.86349e-09
1.13742e-06
-4.25757e-10
6.80721e-10
1.13713e-06
-1.13713e-06
-4.00434e-12
8.20849e-07
-8.20849e-07
-1.13481e-06
1.13232e-06
2.49307e-09
1.13076e-06
-1.12961e-06
-1.14865e-09
-1.64492e-09
1.13671e-06
7.07661e-10
1.13676e-06
3.7316e-10
-4.18724e-10
1.13677e-06
1.13579e-06
-1.1364e-06
6.10088e-10
-1.14674e-06
-1.13213e-06
-2.67365e-09
8.75849e-07
-1.08636e-08
1.13475e-06
1.03542e-09
9.43211e-09
1.13564e-06
-1.13435e-06
-1.28834e-09
-8.11684e-07
8.11684e-07
6.52776e-09
1.13064e-06
-1.12862e-06
1.13046e-06
-1.83889e-09
1.13538e-06
2.54159e-10
5.97986e-09
8.50538e-07
1.13405e-06
-1.13358e-06
-4.71384e-10
-1.12503e-06
-3.59526e-09
1.13097e-06
-1.13189e-06
9.17701e-10
1.13329e-06
7.61928e-10
1.13536e-06
1.40158e-09
-1.11411e-08
-1.12279e-06
-1.6268e-09
-1.00095e-07
-7.61978e-07
1.12907e-06
-1.13017e-06
1.10387e-09
3.38778e-08
7.86971e-07
1.13392e-06
-1.13281e-06
-1.11034e-09
-1.04007e-09
-2.00647e-08
-9.41839e-07
9.61904e-07
-8.21382e-07
8.30853e-07
-9.47076e-09
-1.12371e-06
1.12409e-06
-3.77754e-10
1.13257e-06
1.35053e-09
-1.12914e-06
-7.04702e-07
1.14113e-06
1.13306e-06
-1.1314e-06
-1.66729e-09
-1.1341e-06
1.13413e-06
-2.3804e-11
1.13096e-06
-1.12995e-06
-1.01582e-09
-1.10437e-07
-9.70319e-07
1.08076e-06
1.13186e-06
1.20749e-09
-1.12463e-06
9.24377e-10
1.13323e-06
-1.13179e-06
-1.4443e-09
8.51645e-07
-8.70841e-07
8.70841e-07
1.13281e-06
-1.13061e-06
-2.20169e-09
-2.24146e-09
1.13324e-06
-1.78637e-09
-8.52846e-07
1.13114e-06
1.66744e-09
-1.13398e-06
-2.16578e-09
-1.12284e-06
1.12346e-06
-6.15147e-10
1.13411e-06
6.40902e-10
1.95896e-08
1.12253e-06
-2.39314e-10
1.13316e-06
2.89203e-09
8.49794e-07
4.07578e-09
1.44548e-10
-1.12401e-06
1.17123e-09
8.66695e-08
3.23677e-09
3.63567e-08
1.12993e-06
-1.13098e-06
1.05006e-09
-1.12164e-06
1.12298e-06
-1.33288e-09
2.09511e-08
-8.51489e-07
8.30538e-07
1.52029e-07
-8.85533e-07
7.33504e-07
3.20489e-07
8.03488e-07
-8.03488e-07
1.12907e-06
-1.12907e-06
-9.2405e-07
5.17775e-10
-1.1312e-06
8.66923e-07
1.13278e-06
2.5985e-09
-2.12677e-07
-3.9717e-07
6.09847e-07
-1.12334e-06
1.69401e-09
-1.1238e-06
-3.70388e-08
4.80231e-07
-7.91814e-07
3.11583e-07
-7.96074e-10
7.79006e-09
1.12301e-06
1.89429e-09
8.5278e-07
-1.1345e-06
2.40896e-09
1.12985e-06
7.20817e-07
-8.79703e-07
1.58886e-07
7.33567e-07
-2.53335e-07
-1.4281e-09
-1.12877e-06
1.13473e-06
-1.12694e-06
-1.13135e-06
-1.12016e-06
1.11908e-06
1.08564e-09
2.83733e-10
1.1318e-06
1.12788e-06
1.19344e-09
1.03066e-06
-6.84535e-07
-3.46124e-07
-2.93264e-09
8.61787e-07
1.13145e-06
1.83539e-09
1.03083e-06
-1.14126e-06
7.80207e-09
1.12296e-06
-1.34418e-09
-1.12838e-06
-1.12153e-06
1.37311e-09
-8.23243e-07
1.86009e-09
8.65659e-07
-6.94148e-07
-1.71511e-07
1.12584e-06
-1.12592e-06
7.66354e-11
-1.3569e-09
3.24654e-07
-4.56596e-07
-4.2742e-07
8.84016e-07
1.12802e-06
-1.12973e-06
1.714e-09
8.93383e-07
-8.81165e-07
-2.52492e-09
8.60951e-07
-7.38882e-07
5.26205e-07
1.12685e-06
-1.12796e-06
1.11603e-09
1.1334e-06
-1.1256e-06
-8.49826e-07
2.89765e-08
-8.52638e-07
8.50938e-07
1.69995e-09
8.28317e-07
-8.48382e-07
1.83572e-08
1.12212e-06
-8.61621e-07
8.33249e-07
-3.0469e-08
1.13157e-06
-1.1302e-06
-1.37424e-09
8.80429e-07
-8.4273e-07
-3.76988e-08
1.12788e-06
-6.88349e-10
-1.12847e-06
-8.34808e-07
2.44347e-09
1.04996e-07
6.40531e-07
-7.45527e-07
-1.11873e-06
1.11749e-06
1.23979e-09
1.12604e-06
4.04603e-09
-7.12695e-07
-1.48425e-07
8.36549e-09
1.1226e-06
1.1296e-06
-1.13231e-06
2.70918e-09
1.12826e-06
-2.06654e-09
-1.1247e-06
-8.77555e-07
-1.48784e-07
1.13017e-06
2.40325e-09
1.20286e-06
-2.47995e-07
-7.06164e-09
1.12918e-06
-1.12212e-06
1.12853e-06
1.06145e-09
-1.12039e-06
1.66176e-09
-1.12337e-06
-8.27797e-09
-2.11548e-09
1.11399e-06
-1.11187e-06
1.48825e-09
1.12864e-06
1.13356e-06
-1.1252e-06
-1.12985e-06
-3.19265e-09
8.62861e-07
-1.22685e-09
8.54734e-07
-4.29398e-08
-8.11794e-07
1.17949e-08
8.42939e-07
-1.11563e-06
1.11351e-06
-1.12964e-06
-2.49704e-09
7.17136e-07
1.48524e-07
-4.02612e-09
8.74018e-07
-8.69992e-07
-7.22818e-07
-6.05188e-07
7.10185e-07
-9.42685e-07
1.18353e-07
8.24332e-07
1.12814e-06
8.80908e-10
-1.12948e-06
1.14419e-08
1.12329e-06
1.12649e-06
-1.12667e-06
1.80256e-10
1.12895e-06
-1.12557e-06
-3.38478e-09
-1.13045e-06
8.22846e-10
-1.7118e-09
-8.53465e-07
8.55177e-07
1.85551e-10
1.13018e-06
-7.83568e-07
2.29665e-07
-1.12904e-06
1.12838e-06
6.66817e-10
-1.11715e-06
1.11578e-06
1.3693e-09
1.07058e-08
9.19984e-07
-8.92975e-07
6.77583e-07
-1.69777e-08
-6.04426e-09
1.12983e-06
-1.12378e-06
-1.00638e-06
5.49788e-07
1.12775e-06
1.00007e-09
-1.12918e-06
1.12887e-06
2.98506e-09
-1.05478e-06
9.72113e-09
1.04506e-06
1.82936e-09
-1.11898e-06
1.12672e-06
-1.12554e-06
-1.18264e-09
-3.58019e-08
1.13366e-06
-1.09786e-06
-1.73648e-09
-2.32538e-07
1.06113e-06
-8.28594e-07
-8.49826e-07
-9.31694e-07
1.12742e-06
-5.7932e-10
1.01047e-08
1.1233e-06
1.10043e-06
1.13838e-06
-1.13814e-06
-2.36716e-10
8.96889e-10
-8.56614e-07
8.55717e-07
-1.12811e-06
1.12734e-06
7.74021e-10
2.30933e-08
-8.50855e-07
8.27762e-07
1.12959e-06
-1.12916e-06
-4.21924e-10
-8.74899e-07
8.70873e-07
1.12628e-06
-1.1254e-06
-8.82594e-10
3.18061e-09
1.12577e-06
-1.43556e-08
1.13224e-06
-1.12873e-06
9.63496e-09
-8.31497e-07
1.12877e-06
-1.12856e-06
-2.0816e-10
1.12818e-06
6.55537e-10
-1.12862e-06
1.12238e-06
2.34181e-09
-1.12473e-06
2.74869e-10
1.1289e-06
-1.12572e-06
-2.9387e-09
-8.55331e-07
8.5827e-07
6.07238e-07
-8.92662e-07
2.85424e-07
-1.87352e-07
-8.67428e-07
-8.30638e-07
-1.84576e-07
-7.27674e-07
-1.12754e-06
6.64255e-09
1.1209e-06
-8.60398e-07
8.55331e-07
5.06729e-09
-2.61115e-07
-6.9037e-07
-1.12685e-06
1.0071e-06
-1.12455e-06
1.12656e-06
-2.01458e-09
-9.38601e-07
9.25008e-08
8.461e-07
8.99901e-07
-6.9077e-07
-2.09131e-07
-1.12858e-06
2.31348e-09
1.12627e-06
8.56679e-07
-8.45629e-07
2.40981e-09
1.12431e-06
-1.12864e-06
1.17077e-09
1.12766e-06
1.12741e-06
3.73025e-09
-1.97409e-10
-1.12834e-06
-3.78407e-09
-1.12526e-06
-1.1257e-06
8.56049e-07
-8.46328e-07
-4.89484e-09
2.41439e-07
7.45838e-07
-7.68862e-07
7.68862e-07
9.9531e-09
1.12361e-06
-1.27926e-06
-1.04195e-06
1.04285e-06
1.129e-06
8.54968e-07
-8.48261e-07
-1.12735e-06
1.12356e-06
-9.52941e-07
9.76034e-07
1.12651e-06
-1.12552e-06
-9.91452e-10
1.41183e-09
1.12765e-06
-1.14087e-06
8.58663e-07
-8.61602e-07
-1.12696e-06
1.93777e-09
4.25493e-07
1.12977e-06
-1.1284e-06
-1.37078e-09
-1.129e-06
1.12658e-06
-1.12564e-06
-9.38102e-10
-1.12642e-06
-1.12007e-09
1.12391e-06
-1.12045e-06
-8.61218e-07
1.03749e-06
1.1256e-06
-1.12525e-06
-3.51178e-10
-2.00222e-09
1.12439e-06
-8.60398e-07
7.46122e-07
-8.07809e-07
6.1687e-08
-1.38926e-06
1.38926e-06
1.12848e-06
1.12869e-06
-2.8753e-09
1.94089e-09
-1.12821e-06
1.13234e-06
-4.12899e-09
1.12623e-06
-1.12528e-06
-9.51901e-10
-9.34638e-07
8.89872e-07
3.57275e-09
1.12561e-06
-1.12853e-06
3.09221e-09
1.12544e-06
-1.12515e-06
1.12757e-06
-1.12606e-06
-8.64098e-07
-1.1276e-06
3.83769e-09
1.12376e-06
-8.65101e-07
-2.49746e-09
8.44835e-07
-8.50907e-07
6.07238e-09
1.12475e-06
-1.12569e-06
9.44103e-10
2.15922e-08
-1.1276e-06
1.12569e-06
1.90034e-09
1.12724e-06
-8.26743e-07
-8.21223e-07
-1.35853e-08
1.12832e-06
-1.12832e-06
-5.83781e-09
8.57483e-07
-1.12766e-06
1.12602e-06
-1.12507e-06
-9.52239e-10
1.12809e-06
-6.36221e-09
-1.12659e-06
-8.39085e-07
-1.02754e-07
-8.6264e-07
6.73306e-07
-7.52516e-07
7.92094e-08
-1.6792e-07
-7.28458e-07
8.96378e-07
1.12389e-06
-1.12088e-06
7.31981e-07
-8.51489e-07
-2.49417e-09
-1.12609e-06
1.12664e-06
-1.1257e-06
-9.36988e-10
8.65761e-07
-8.70396e-07
-2.37784e-07
-1.57518e-07
3.95301e-07
-8.97628e-07
9.04495e-07
8.69278e-07
-8.57483e-07
-3.41577e-09
-8.42857e-07
8.46273e-07
-4.59819e-09
-8.36308e-07
8.40906e-07
2.94383e-09
-8.78441e-07
8.75497e-07
8.12158e-09
-8.81417e-07
8.73295e-07
4.33751e-09
-8.62879e-07
8.58541e-07
-1.40111e-09
-8.45062e-07
8.46463e-07
-1.04952e-09
-8.44539e-07
8.45589e-07
5.07239e-07
-3.41812e-07
-1.65427e-07
7.49021e-07
5.64844e-09
1.12418e-06
8.24162e-07
-8.30008e-07
5.84565e-09
2.64892e-09
-1.12618e-06
1.12353e-06
1.12915e-06
-1.12915e-06
1.11419e-06
-4.59432e-11
-1.11414e-06
-3.88479e-09
-1.12346e-06
1.12593e-06
-1.12494e-06
-9.90429e-10
-6.99804e-07
-9.18748e-07
-1.98529e-08
7.38811e-07
1.41618e-07
1.12827e-06
-1.12665e-06
-1.62026e-09
-8.58831e-07
8.94047e-07
3.79298e-09
1.12511e-06
-6.19453e-07
-3.86931e-07
9.01207e-09
8.07541e-07
-8.16553e-07
-5.77206e-07
-9.84287e-08
-1.93598e-07
-1.18693e-07
3.1229e-07
8.48447e-07
8.48576e-07
8.85488e-07
8.85703e-07
8.79638e-07
8.6747e-07
-4.02109e-09
-8.50158e-07
8.54179e-07
8.51056e-07
-1.26236e-09
-3.33107e-07
1.12631e-06
-1.12366e-06
-2.81232e-08
9.06677e-07
-1.12946e-06
-7.70663e-07
9.5539e-07
1.11299e-06
5.47282e-10
-1.11353e-06
1.13063e-06
-2.31279e-09
-1.1282e-06
4.12988e-09
1.12407e-06
-8.50184e-07
-8.53465e-07
8.53465e-07
-8.57486e-07
-7.76328e-07
9.37181e-07
-1.60852e-07
-2.04139e-09
-1.12556e-06
5.87955e-07
-7.32968e-07
1.8548e-09
-1.12739e-06
-1.12604e-06
-2.99434e-07
-4.39448e-07
-1.12403e-06
-2.14338e-09
8.63508e-07
2.69455e-07
6.59344e-07
1.12482e-06
-1.12395e-06
-8.71836e-10
8.56609e-07
-5.66356e-07
-2.90253e-07
-4.08458e-07
2.1486e-07
-4.7389e-07
1.02368e-06
-4.10407e-07
8.5259e-07
-4.42183e-07
4.68581e-10
1.12755e-06
-1.11978e-06
1.12561e-06
-1.12627e-06
6.55224e-10
-6.37409e-07
2.71297e-07
3.66112e-07
-3.6759e-09
-8.49933e-07
8.53609e-07
1.17859e-06
-5.20271e-07
-6.58321e-07
7.61258e-10
1.11342e-06
-2.45405e-07
-3.92003e-07
-8.22792e-07
8.31804e-07
7.02704e-07
4.63173e-08
-8.18808e-07
-1.65605e-09
-8.50736e-07
8.52392e-07
8.77858e-07
-8.51466e-07
-5.21998e-07
-1.99064e-07
7.21061e-07
-1.12394e-06
1.12427e-06
-3.37227e-10
-8.29627e-07
8.39262e-07
1.12508e-06
-1.12583e-06
-7.51886e-07
-1.69765e-08
-1.13358e-06
1.12933e-06
-5.87217e-07
8.40997e-10
1.12572e-06
9.81325e-07
-5.42313e-07
-4.39012e-07
8.29516e-07
-1.5621e-07
9.29213e-07
-1.21672e-07
8.52286e-07
-8.55961e-07
1.12365e-06
-1.12364e-06
-5.4393e-12
8.52665e-07
-8.54321e-07
1.03417e-09
-1.12301e-06
1.12198e-06
-4.73367e-07
-1.1385e-07
3.63239e-09
-8.6485e-07
-1.12624e-06