/*--------------------------------*- C++ -*----------------------------------*\
  =========                 |
  \\      /  F ield         | OpenFOAM: The Open Source CFD Toolbox
   \\    /   O peration     | Website:  https://openfoam.org
    \\  /    A nd           | Version:  12
     \\/     M anipulation  |
\*---------------------------------------------------------------------------*/
FoamFile
{
    format      ascii;
    class       surfaceScalarField;
    location    "0.28";
    object      phi;
}
// * * * * * * * * * * * * * * * * * * * * * * * * * * * * * * * * * * * * * //

dimensions      [0 3 -1 0 0 0 0];

internalField   nonuniform List<scalar> 
6438
(
-4.51929e-08
5.68033e-06
-5.63514e-06
-4.87021e-08
6.59926e-06
-6.55056e-06
-6.19256e-06
-1.05689e-06
7.24945e-06
5.87311e-06
-6.44986e-06
5.76749e-07
9.02029e-06
-7.04896e-06
-1.97133e-06
2.03423e-06
6.98606e-06
-7.04476e-06
8.52195e-07
-6.09984e-06
6.05114e-06
6.5988e-06
-7.8731e-06
1.2743e-06
6.12304e-06
-7.18547e-06
1.06243e-06
-5.92102e-06
7.21146e-06
-1.29044e-06
1.42001e-06
-6.48537e-06
5.06536e-06
-7.3429e-06
1.42188e-06
5.62745e-06
2.58468e-06
-8.21213e-06
5.29043e-06
-5.33562e-06
-2.99255e-07
6.19916e-06
-5.89991e-06
-7.81103e-06
7.57702e-06
2.34004e-07
-5.91437e-06
7.18854e-06
-1.27417e-06
-7.34367e-06
1.4293e-06
2.3312e-06
4.91946e-06
-7.25066e-06
-1.6963e-06
-1.10694e-06
2.80324e-06
-3.59756e-07
6.49146e-06
-6.1317e-06
-6.02559e-06
-9.75802e-07
7.00139e-06
-7.37952e-06
3.23272e-06
4.1468e-06
-6.39403e-06
6.03427e-06
-5.67854e-06
6.90328e-06
-1.22474e-06
-6.95637e-06
9.30779e-07
6.58131e-06
-5.1613e-06
-5.97891e-06
-1.12697e-06
7.10588e-06
-7.24082e-06
1.56228e-06
5.52974e-06
-6.96542e-06
1.43568e-06
3.03452e-08
-6.77762e-06
6.74727e-06
6.63369e-06
-6.67722e-06
4.35237e-08
-6.57325e-06
1.10173e-06
5.47152e-06
-8.87315e-06
1.43915e-06
7.43399e-06
6.24159e-06
-6.21124e-06
6.29977e-06
-4.26652e-07
4.08663e-06
5.72661e-06
-9.81324e-06
-2.03545e-06
7.6629e-06
-5.85986e-06
6.44109e-06
-5.81223e-07
-6.7923e-06
6.732e-06
6.0297e-08
-2.81594e-06
5.14714e-06
6.07071e-06
5.23351e-08
-7.29974e-06
7.15029e-06
1.49447e-07
6.52842e-06
-9.98681e-07
-4.92903e-06
4.62977e-06
-8.48882e-06
1.43987e-06
6.45623e-06
6.2031e-07
-7.07654e-06
-5.00455e-06
-1.56871e-06
-9.23284e-07
-6.03795e-06
6.85249e-06
-8.14537e-07
-4.47939e-06
6.47464e-06
-1.99525e-06
6.5117e-06
-6.5117e-06
2.04903e-06
4.93834e-06
6.48974e-07
-5.58732e-06
2.89783e-06
1.4144e-06
-4.31222e-06
5.51119e-06
1.16951e-06
-6.68071e-06
5.32543e-06
-2.09271e-06
-3.08691e-06
-5.40191e-06
-6.42035e-08
5.74151e-06
-5.67731e-06
-7.07956e-06
7.07956e-06
-7.33755e-06
7.41579e-06
-7.82483e-08
2.98293e-07
5.44901e-06
-5.7473e-06
2.02728e-08
-6.67966e-06
6.65938e-06
6.19953e-06
-6.17925e-06
-6.76031e-06
7.81393e-07
-6.77623e-06
-5.2351e-07
-5.82906e-06
6.41076e-06
-5.81705e-07
6.45178e-07
5.58217e-06
-6.22735e-06
-6.85702e-06
6.5934e-06
2.63618e-07
6.68208e-06
-6.68208e-06
6.20604e-06
3.92765e-07
-4.07949e-06
-3.10598e-06
5.82144e-06
1.22761e-06
-7.04905e-06
-5.70826e-06
-1.08404e-06
5.07272e-06
3.91633e-06
-8.98905e-06
-7.85155e-06
5.03561e-06
-5.00393e-06
-2.84762e-06
6.92662e-06
-1.10518e-06
4.1234e-06
-1.22557e-06
5.60125e-06
6.44882e-07
-6.24613e-06
-6.908e-06
-4.29544e-07
-9.74176e-07
-1.68461e-06
-5.39495e-06
7.4916e-06
-7.4916e-06
-4.94757e-06
-1.90945e-06
-4.48046e-07
-8.4251e-06
-6.46389e-06
6.43788e-06
2.60091e-08
2.33019e-07
-6.54373e-06
6.31071e-06
-7.18859e-07
6.32011e-06
6.46814e-06
1.65556e-07
-6.75706e-06
-1.05397e-06
-6.82686e-06
7.0027e-06
-1.7584e-07
7.11323e-06
-3.98211e-06
-3.13112e-06
6.38928e-06
-6.15626e-06
1.29511e-07
7.15776e-06
-3.64251e-06
-3.51525e-06
4.07461e-06
3.03862e-06
6.5749e-06
-6.5749e-06
-5.04266e-06
7.23607e-06
-2.19341e-06
-6.33938e-06
3.01428e-07
-8.65863e-07
-5.13624e-06
6.00211e-06
-5.94053e-06
2.3227e-07
-6.3681e-06
1.32544e-06
5.49638e-06
1.21709e-06
-6.71347e-06
-3.75403e-07
5.87179e-06
-5.73867e-06
6.63093e-06
-8.92255e-07
-6.09826e-06
2.38393e-07
4.19367e-06
2.96409e-06
6.34611e-06
-1.28075e-06
2.72334e-07
6.23937e-06
-5.47955e-06
-4.60978e-07
5.73045e-06
1.21984e-06
-6.95028e-06
-3.16644e-06
-2.73453e-06
5.90097e-06
4.17059e-06
-5.22243e-07
-3.64835e-06
-6.77762e-06
1.37353e-06
6.79978e-06
-8.17331e-06
-3.15058e-06
1.45428e-06
6.78235e-06
1.20925e-07
7.34346e-06
-3.80256e-06
-3.5409e-06
2.45975e-06
4.8837e-06
6.867e-06
-1.13655e-06
8.37299e-06
-4.28636e-06
-6.20352e-06
1.46659e-08
6.18885e-06
-8.87148e-06
9.09946e-07
7.96154e-06
-1.01725e-07
-6.15689e-06
6.25861e-06
6.77398e-06
3.76308e-07
-5.22346e-06
5.15925e-06
-6.23365e-06
6.35916e-06
-1.25519e-07
6.31181e-06
-6.41353e-06
6.51136e-06
-6.51136e-06
6.41632e-06
1.82945e-07
6.42877e-06
-1.49042e-06
6.34343e-06
-6.04513e-06
-5.58602e-06
4.72015e-06
5.72693e-08
6.15466e-06
-6.21193e-06
7.22802e-06
-5.0665e-06
-2.16152e-06
-6.67966e-06
-9.55414e-08
7.44637e-08
-6.1743e-06
-6.18982e-06
3.60757e-07
7.16931e-08
6.1699e-06
5.97078e-06
-5.3256e-06
-6.15783e-06
4.19163e-07
6.24884e-06
-1.78132e-07
-2.22781e-07
5.43703e-06
-5.21425e-06
4.27275e-06
2.95527e-06
-6.40534e-06
1.37299e-06
5.03235e-06
6.52509e-06
-5.04564e-08
-8.63199e-06
7.88616e-07
7.84338e-06
-8.73929e-08
-6.12438e-06
6.21177e-06
4.07144e-06
9.91494e-08
3.87929e-07
6.13717e-06
6.07584e-06
5.05471e-07
6.27453e-06
-6.36192e-06
-6.53847e-06
-2.18588e-07
6.66817e-06
-7.16153e-06
4.93361e-07
-5.96439e-06
-2.3913e-07
-7.25787e-06
3.14706e-06
4.11081e-06
6.12603e-09
6.276e-06
2.15452e-07
-5.9048e-06
6.8658e-06
-9.61e-07
-6.51588e-06
5.60875e-06
9.07129e-07
-8.80436e-07
2.2745e-06
-1.39407e-06
-2.0399e-06
-5.20092e-06
-6.54373e-06
-5.17667e-08
6.25129e-06
1.91272e-06
5.32335e-06
-1.04753e-07
-6.36447e-06
-2.95553e-08
-1.3402e-07
-6.96028e-06
5.88265e-06
1.07762e-06
-4.10542e-07
5.18388e-06
1.02216e-06
1.01738e-05
-4.44716e-06
-2.15291e-06
-5.19076e-06
6.38224e-06
8.58992e-08
-5.48185e-06
2.31541e-06
-2.45851e-06
-3.88453e-06
6.34304e-06
-2.19528e-06
-5.14762e-06
-3.57599e-06
8.64871e-06
-6.57771e-06
2.1324e-07
-6.2119e-06
6.23591e-06
-2.40106e-08
-5.13636e-06
4.91358e-06
-7.49466e-08
-6.08808e-06
6.16302e-06
-6.69154e-06
1.13834e-07
5.58327e-06
-6.64297e-06
1.0597e-06
6.2199e-06
-6.29484e-06
5.55888e-06
-2.10539e-06
-3.45349e-06
-8.4052e-06
2.97612e-06
5.42907e-06
5.70148e-06
5.47356e-07
4.70991e-06
2.86711e-06
1.37777e-06
6.11383e-06
-1.6321e-06
-5.8595e-06
-6.76928e-06
6.71043e-06
5.88549e-08
-6.7515e-06
-1.77827e-08
-6.71609e-06
-3.5413e-08
1.88847e-08
1.74565e-06
-9.78424e-06
8.03858e-06
-7.27027e-06
8.64379e-06
5.74112e-06
-5.68385e-06
6.13304e-06
2.56246e-07
5.00808e-07
5.05807e-06
-6.15689e-06
-5.5825e-06
5.55525e-06
6.9421e-07
-6.24946e-06
-3.23717e-08
-1.32379e-06
9.77135e-06
-8.44756e-06
9.26993e-06
-6.68526e-06
-2.80998e-06
4.22437e-06
-1.78153e-06
-5.47634e-06
-4.86742e-06
-3.53777e-06
-6.15593e-06
-3.82543e-07
-6.19847e-06
6.1976e-06
8.65777e-10
-9.81003e-07
5.82153e-06
-4.84053e-06
-6.65075e-06
6.69759e-06
-4.68403e-08
-6.58142e-06
-6.93287e-08
-8.46259e-06
5.26025e-07
7.93657e-06
-5.91696e-06
-3.83847e-07
6.30081e-06
6.6256e-06
7.19834e-08
-1.17813e-06
-7.24122e-06
2.63587e-06
4.60536e-06
4.23579e-08
-3.83593e-06
-3.40529e-06
-9.04852e-08
-6.77624e-08
-6.05422e-06
6.12198e-06
-6.22746e-06
3.10503e-07
5.62775e-06
7.54488e-07
6.48597e-06
-6.21364e-06
6.16202e-06
-6.22979e-06
6.13463e-06
1.77183e-07
3.01405e-06
6.25588e-06
6.41037e-06
-1.22649e-06
-5.02692e-07
-8.36879e-06
-3.67783e-07
5.05765e-06
-4.68987e-06
-6.55014e-06
-3.12733e-08
-6.54926e-06
-8.88004e-10
6.60246e-06
-6.55536e-06
-4.70982e-08
6.52986e-06
7.26014e-08
-6.12438e-06
1.51128e-06
-2.07613e-06
5.64844e-07
-7.39386e-06
4.32421e-06
3.06964e-06
3.31521e-06
-6.64464e-06
3.32943e-06
-5.79972e-06
-5.39657e-07
-6.17784e-06
6.1472e-06
3.06382e-08
-6.4288e-06
6.1994e-06
2.29405e-07
-5.13103e-07
6.57874e-06
-6.06564e-06
-6.38301e-06
1.55552e-07
-7.08686e-06
8.83251e-06
-6.59948e-07
-5.74539e-06
-6.66241e-06
6.14931e-06
-5.22126e-06
-4.80928e-07
5.70219e-06
-4.89698e-06
6.48754e-06
4.232e-08
-4.44727e-06
-1.1893e-06
1.31879e-06
-1.29492e-07
-6.17201e-08
2.37911e-07
-8.45432e-06
8.21641e-06
-4.7412e-06
-2.30356e-06
-6.58202e-06
6.44636e-06
1.35657e-07
-6.48076e-06
-1.01265e-07
-2.33209e-06
1.45165e-06
6.12367e-06
1.50859e-07
6.54146e-06
-1.09245e-06
6.47397e-06
-6.46605e-06
-7.91541e-09
-1.75592e-08
-6.00806e-06
6.02562e-06
6.77508e-06
-4.86236e-06
-8.13925e-08
6.72721e-06
3.79276e-06
-1.052e-05
6.66616e-06
-6.66616e-06
1.02854e-06
6.05102e-06
-2.35203e-06
-4.15967e-06
-5.31173e-06
6.40098e-06
-1.08925e-06
-7.10932e-07
-5.71787e-06
6.13108e-06
-6.14863e-06
-5.87013e-06
1.00891e-07
5.76924e-06
1.12702e-06
-5.95034e-06
4.82332e-06
-6.1604e-06
6.09719e-06
6.32112e-08
3.93452e-06
2.84056e-06
-1.92293e-07
-9.97009e-07
-3.69658e-06
-3.69728e-06
-1.41235e-06
-6.57581e-06
6.71015e-07
-6.08808e-06
5.51642e-06
1.15175e-06
-5.1273e-06
-5.75499e-06
5.33729e-07
-5.87268e-06
3.41417e-06
6.6628e-06
-5.41708e-06
-1.24572e-06
1.13885e-06
5.34713e-06
-4.72062e-06
-2.23575e-06
-6.51896e-06
6.51896e-06
6.51913e-06
-6.26829e-06
-2.50837e-07
3.76042e-07
-6.17577e-06
-5.21542e-06
5.89555e-06
-6.80131e-07
-2.06758e-06
9.60637e-07
6.07429e-06
-6.10386e-06
2.95693e-08
6.37724e-06
6.91275e-08
6.44547e-06
7.36558e-08
9.74127e-06
-6.2159e-06
-1.6711e-07
-5.45347e-06
4.47247e-06
6.11568e-06
1.04217e-07
6.42567e-06
-6.38878e-06
-3.68875e-08
-5.50897e-08
-8.88139e-08
6.70816e-07
-5.50965e-06
4.83883e-06
-1.94045e-07
-8.43795e-06
2.01801e-06
4.56076e-07
-5.6715e-06
-6.1478e-06
6.05412e-06
9.36865e-08
6.13475e-06
-5.51479e-07
-2.86591e-06
-3.8113e-06
-8.59406e-06
6.37086e-07
-3.44706e-06
-1.02056e-06
2.54216e-08
6.32006e-06
-5.62585e-06
-6.05422e-06
-6.06422e-06
1.57851e-07
5.90637e-06
8.56144e-06
1.20991e-06
4.93344e-06
2.48236e-06
5.97072e-06
-2.65551e-06
6.23653e-06
-3.53878e-07
1.42996e-05
-1.05068e-05
-9.78424e-06
-3.13544e-06
-3.38044e-06
-7.88608e-08
6.64733e-06
-6.22768e-06
-4.19648e-07
6.29989e-06
1.45583e-07
7.29036e-07
-6.04076e-06
-4.48192e-06
5.15273e-06
6.10905e-06
5.29768e-08
4.79891e-06
2.12772e-06
6.40881e-06
2.38515e-07
6.40273e-06
-6.3109e-06
-9.18324e-08
-2.88178e-06
-4.08364e-06
-2.88253e-07
5.897e-06
1.0976e-07
-6.79184e-06
5.30923e-06
-4.18221e-06
-8.88897e-08
1.34443e-07
5.17701e-06
-5.62308e-06
4.46078e-07
9.45978e-07
5.455e-06
8.68978e-06
-8.45187e-06
3.02388e-06
3.8286e-06
-6.13211e-06
6.06002e-06
7.20884e-08
-1.41617e-07
-3.5631e-06
1.94972e-06
1.61337e-06
-6.3843e-08
6.66232e-06
-6.66232e-06
7.52205e-06
-4.36063e-06
-3.16143e-06
-5.52411e-06
-9.25757e-07
4.65733e-06
2.20966e-06
6.37214e-06
3.66732e-08
-6.00806e-06
5.96106e-06
3.78168e-08
-5.99888e-06
4.88127e-06
6.79184e-06
-6.74727e-06
1.72367e-07
7.9318e-06
-7.02185e-06
6.14266e-06
-6.54524e-06
6.09886e-06
-1.37799e-07
5.50552e-06
-5.9572e-06
5.92578e-06
3.14196e-08
2.79062e-07
4.779e-06
-5.05806e-06
-5.42212e-06
4.4778e-06
-4.06361e-07
5.67163e-06
7.69454e-07
-5.41689e-08
-5.24218e-06
-9.1565e-07
-7.8482e-06
4.96641e-06
8.26475e-09
-5.97265e-06
-6.36074e-06
-3.01669e-07
8.52072e-06
-4.60439e-06
6.12391e-08
-1.10207e-06
6.77482e-06
-5.67274e-06
-2.8944e-06
-6.68695e-07
5.93396e-06
-5.99827e-06
6.43038e-08
-6.14266e-06
6.08942e-06
2.641e-06
3.77424e-06
-6.41524e-06
6.38563e-06
-1.20862e-06
5.30825e-07
5.66834e-06
6.26248e-06
6.03317e-07
6.83035e-07
8.28247e-07
-6.65938e-06
1.48028e-07
-5.28755e-06
6.01659e-06
-3.06224e-06
3.69932e-06
5.6564e-07
-5.55567e-06
4.99003e-06
-4.47226e-08
1.18429e-07
-5.54291e-06
-6.3024e-06
6.18711e-06
1.1529e-07
-6.04656e-06
6.29484e-07
3.94426e-06
3.5778e-06
-3.40249e-06
6.97755e-06
-3.57506e-06
6.99175e-06
-6.52741e-06
-4.64349e-07
1.73389e-07
4.30441e-06
-6.00006e-06
-6.41626e-08
6.0899e-06
8.95847e-09
3.01179e-06
-1.06206e-06
7.75226e-06
-6.96364e-06
5.56014e-06
8.50628e-07
3.51062e-07
-6.18352e-06
9.41336e-07
9.50965e-08
-5.38265e-06
6.90537e-06
-5.57993e-06
5.62993e-06
-3.42724e-07
-5.35904e-06
5.70176e-06
-6.06041e-06
6.31087e-06
-7.49615e-08
-9.18099e-06
7.33428e-07
-3.87582e-08
5.94482e-06
1.15197e-07
-5.61443e-06
-6.16033e-06
6.13434e-06
2.59885e-08
7.36978e-06
-4.27898e-06
-3.0908e-06
-5.17004e-06
-4.65168e-07
5.63521e-06
-1.39573e-08
-6.09332e-06
1.31013e-07
-6.58432e-07
6.50708e-06
-5.84865e-06
-5.96562e-06
5.99519e-06
-8.65664e-06
-1.26406e-06
-8.37437e-06
8.16465e-06
2.09716e-07
4.7805e-06
2.43096e-06
5.59615e-06
5.01582e-07
-6.09773e-06
5.94624e-06
-2.44759e-07
4.79477e-06
2.39377e-06
-4.24367e-06
1.34927e-06
-6.00897e-06
5.22065e-06
-5.93951e-06
-8.06766e-06
8.03835e-06
2.9308e-08
7.28938e-06
-5.85023e-06
5.9436e-06
-1.78201e-08
3.65363e-07
-5.54298e-06
5.17761e-06
-8.962e-08
-7.97804e-06
7.20341e-06
-7.20341e-06
-3.27726e-06
6.17984e-06
-2.90258e-06
-5.94898e-06
5.94898e-06
6.0823e-06
-5.37725e-06
-7.05056e-07
5.65849e-06
1.34421e-06
6.33902e-06
-5.20017e-06
6.26799e-06
-7.03895e-08
-4.90729e-06
-7.86278e-07
5.69357e-06
-7.96927e-06
7.99623e-06
-2.69576e-08
7.34881e-06
-4.42357e-06
-2.92524e-06
1.07449e-06
5.26453e-06
-8.05269e-06
8.0124e-06
4.02927e-08
-1.26979e-09
-5.85857e-08
7.94656e-06
-7.88798e-06
-8.02193e-06
8.02193e-06
-9.55698e-08
6.02953e-06
8.60796e-06
-8.0247e-06
-5.83262e-07
-8.05767e-06
7.99909e-06
8.05081e-06
-8.00971e-06
-4.10987e-08
-5.86614e-06
-1.32127e-07
6.86118e-06
-9.14735e-08
7.99719e-06
-7.90571e-06
7.9997e-06
-8.01474e-06
1.50371e-08
-6.04615e-06
7.95817e-06
-1.16085e-08
-6.15292e-06
6.09788e-06
5.5043e-08
-7.95663e-06
7.98523e-06
-2.8603e-08
6.09445e-06
-5.93659e-06
-8.03638e-06
7.94491e-06
6.1631e-06
-1.95853e-06
2.93506e-06
3.83975e-06
-4.45625e-06
-3.39194e-06
-8.00844e-06
8.00844e-06
-8.04516e-06
-1.25101e-08
7.44779e-06
-1.36524e-06
-6.08255e-06
-5.25117e-06
3.56657e-06
2.00785e-07
7.97094e-06
-7.99558e-06
2.46397e-08
5.86726e-06
-5.86116e-06
-6.09238e-09
8.21928e-06
-8.00588e-06
-2.13396e-07
7.9296e-06
4.13417e-08
7.91501e-06
8.21812e-08
-1.62438e-08
-5.93274e-06
-7.34115e-06
4.04033e-06
3.30083e-06
-5.92437e-06
5.96218e-06
7.95466e-06
-2.5065e-08
8.35566e-07
5.40097e-06
4.27754e-06
-1.63654e-06
-8.02475e-06
-1.16331e-08
6.54498e-06
3.88413e-06
-6.61866e-06
-1.00772e-06
-8.17326e-06
5.97012e-06
-6.00441e-06
3.42912e-08
-2.76666e-07
-8.0977e-06
6.21673e-06
-6.95279e-08
6.91276e-06
-4.73006e-06
-2.18271e-06
-5.98314e-06
7.96674e-06
-7.96674e-06
5.69887e-06
7.24894e-08
-5.77136e-06
6.13521e-06
-7.98349e-06
7.97304e-06
1.04493e-08
7.92715e-06
-8.00344e-06
7.62918e-08
5.04727e-06
-6.67937e-06
-2.12604e-08
-7.92729e-06
7.94855e-06
7.90902e-06
-7.93028e-06
-2.64927e-07
8.42958e-06
-6.33468e-06
6.8607e-06
-7.16505e-06
4.96977e-06
-1.25992e-07
8.16434e-06
6.86714e-07
3.53766e-06
6.54845e-08
7.38231e-06
-2.12818e-08
6.38985e-06
-6.36857e-06
-5.42612e-08
-8.00267e-06
-5.00209e-08
6.56794e-06
-6.56801e-07
-5.91114e-06
-7.94939e-06
7.94939e-06
4.66935e-06
-4.02037e-06
-8.01529e-06
7.99432e-06
2.09691e-08
6.12112e-06
-6.12112e-06
5.96021e-06
-9.2951e-08
7.96027e-06
-7.97305e-06
1.27824e-08
-7.68314e-06
2.10064e-06
8.07528e-09
-5.91294e-06
5.90486e-06
6.41278e-06
-5.362e-08
7.9771e-06
7.37108e-08
4.83886e-06
8.26141e-07
-5.665e-06
8.0014e-06
-4.32255e-08
6.21514e-06
-6.21514e-06
7.9505e-06
-7.92289e-06
-2.76114e-08
-6.07903e-06
6.03451e-06
4.45169e-08
8.01134e-06
-7.98702e-06
-2.43189e-08
-7.96252e-06
7.96252e-06
1.18387e-06
5.57446e-06
1.87876e-07
-5.76233e-06
-8.01594e-06
7.99511e-06
2.0834e-08
-2.94795e-08
-6.00206e-06
5.96786e-06
2.25934e-09
7.45068e-06
-1.40944e-06
-6.04124e-06
5.14724e-06
7.93033e-06
-7.95219e-06
2.18596e-08
6.12852e-06
6.54764e-06
9.23028e-08
5.60656e-06
8.13178e-06
-1.54687e-07
7.90435e-06
2.59805e-08
5.81608e-06
-5.81608e-06
-3.06224e-06
8.04216e-06
-7.97903e-06
-2.44069e-08
7.97485e-06
-7.94481e-06
-3.0046e-08
1.55823e-07
-8.12622e-06
7.97039e-06
8.35173e-07
-8.03858e-06
-8.00144e-06
7.98767e-06
1.37676e-08
5.7765e-06
-5.77368e-06
-2.81498e-09
6.0823e-06
-5.36816e-06
5.36816e-06
7.92036e-06
-1.60077e-08
-5.93893e-06
-5.54298e-06
5.59615e-06
6.16127e-06
-6.40843e-08
-1.79936e-08
6.31012e-07
-7.8661e-06
7.97357e-06
-7.97607e-06
2.50016e-09
1.91068e-07
5.58543e-06
1.83949e-07
6.38399e-06
6.00741e-06
-4.72055e-08
-7.98354e-06
7.97432e-06
9.21333e-09
7.91319e-06
-7.9352e-06
2.20102e-08
-7.97645e-06
-3.88419e-08
7.95475e-06
-7.93387e-06
-2.08768e-08
6.00617e-06
1.14955e-07
7.95976e-06
3.45593e-08
-9.96845e-09
7.94186e-06
3.24667e-08
-1.2151e-09
-5.88245e-06
-8.06292e-06
8.48784e-08
-5.96732e-06
5.96732e-06
7.3101e-08
7.37758e-06
-6.06357e-06
1.15628e-06
4.16649e-08
7.95804e-06
3.30799e-07
-5.73237e-06
5.40157e-06
5.51481e-08
7.96678e-06
7.60024e-06
-8.28963e-06
6.00025e-06
2.14893e-07
7.90902e-06
-6.15232e-08
5.63598e-06
-5.80315e-06
2.94639e-08
5.71701e-06
-8.78145e-07
-7.92878e-06
7.92878e-06
-7.97129e-06
-4.46478e-08
5.37725e-06
-5.5742e-06
1.96957e-07
-7.96678e-06
5.8722e-06
-5.86413e-06
7.95585e-06
3.92602e-08
-7.95959e-06
-7.07848e-06
4.92556e-06
-7.9935e-06
7.98022e-06
1.32745e-08
5.43595e-06
5.1029e-07
5.91294e-06
3.60451e-08
-7.90321e-06
7.95731e-06
-5.4102e-08
-6.0025e-06
5.94905e-06
5.34545e-08
-7.92851e-06
2.53013e-08
5.9805e-06
-1.26374e-08
3.32347e-07
-6.1827e-06
5.85036e-06
7.92661e-06
-7.96167e-06
3.50511e-08
6.44809e-06
-6.74975e-06
7.92574e-06
-7.92488e-06
-8.62862e-10
-5.0664e-06
5.0664e-06
-6.23721e-06
6.23721e-06
-7.91666e-06
-1.18462e-08
-3.69932e-06
4.38604e-06
-7.93926e-06
7.92758e-06
1.16722e-08
6.18129e-08
7.94663e-06
4.95168e-06
-4.38604e-06
-4.95168e-06
5.23074e-06
5.25697e-06
-6.04325e-06
7.24414e-06
-4.29343e-06
-2.95072e-06
-7.9677e-06
-3.37414e-08
-1.14998e-06
-5.23074e-06
6.38072e-06
7.95773e-06
2.99375e-08
-6.02882e-06
5.58777e-06
7.98055e-06
-7.96443e-06
-1.61107e-08
-7.93377e-06
-5.97481e-06
6.00112e-06
-1.85038e-07
-2.12269e-08
7.97589e-06
7.94261e-06
-5.90486e-06
-8.13187e-06
-4.7703e-06
6.09773e-06
-1.32743e-06
-7.89877e-06
-2.85219e-08
7.93221e-06
9.64778e-09
4.62633e-06
-4.72539e-06
9.90583e-08
9.08074e-09
5.5742e-06
-5.79771e-06
2.23505e-07
3.6507e-06
3.71908e-06
-7.96411e-06
-2.93824e-08
-6.03119e-06
7.89734e-06
-7.89076e-06
-6.5779e-09
7.95462e-06
2.56026e-08
-7.97761e-06
7.96903e-06
8.57935e-09
6.09772e-06
6.00617e-06
-7.91758e-06
7.9003e-06
1.72776e-08
7.97346e-06
-7.96997e-06
-3.48278e-09
-5.9294e-06
6.00025e-06
7.91382e-06
-7.91382e-06
3.14595e-08
7.98094e-06
-4.99694e-06
-1.06663e-06
7.93047e-06
-3.85933e-09
-1.02045e-06
5.41792e-06
-4.39747e-06
7.91012e-06
-7.90327e-06
-6.84931e-09
2.41843e-08
7.94256e-06
7.89577e-06
-7.90276e-06
6.99383e-09
-7.98797e-06
-7.95931e-06
-4.79249e-06
6.82651e-09
7.96621e-06
-8.32917e-09
-7.93762e-06
7.94595e-06
-7.91437e-06
7.89712e-06
1.72438e-08
-7.96379e-06
-1.38196e-08
-6.02884e-06
-5.82216e-06
1.90157e-08
7.9557e-06
1.33329e-08
-7.90721e-06
7.90387e-06
3.33827e-09
-7.91265e-06
2.97028e-08
7.88295e-06
7.9614e-06
1.91452e-08
-7.93678e-06
-2.76597e-08
-5.78903e-06
-2.70476e-08
7.95749e-06
-7.96241e-06
4.91543e-09
7.91014e-06
-7.91847e-06
-7.92656e-06
7.91563e-06
1.09283e-08
7.90683e-06
-7.90042e-06
-6.40788e-09
5.96202e-06
5.29739e-09
7.96014e-06
1.33189e-08
-7.94906e-06
-2.09119e-08
-7.97825e-06
6.00112e-06
-7.91106e-06
7.89531e-06
1.57469e-08
5.25074e-06
-5.59346e-06
-7.88874e-06
7.9183e-06
-2.95569e-08
7.91316e-06
-7.92496e-06
1.17948e-08
-1.92685e-08
-7.95611e-06
-7.6785e-09
-2.06034e-08
-7.02286e-06
4.98296e-06
-1.35606e-08
7.91014e-06
-1.30766e-08
-8.41547e-09
-7.96283e-06
6.71799e-09
3.04413e-06
6.69117e-06
-9.73529e-06
-1.64905e-06
7.95756e-06
-7.37805e-11
-7.94256e-06
1.46237e-08
7.93476e-06
-7.94743e-06
-1.49708e-08
-5.98187e-06
-7.97076e-06
7.92615e-09
2.77617e-08
7.93251e-06
-1.27516e-09
3.76085e-08
-7.83584e-06
7.79823e-06
7.96852e-06
-7.96445e-06
-4.07716e-09
-6.08858e-06
1.09164e-06
7.95318e-06
-7.93924e-06
-1.39401e-08
-7.95843e-06
-5.90075e-06
-3.11176e-07
7.90515e-06
-7.89891e-06
-6.23911e-09
4.14716e-08
-7.8433e-06
7.80183e-06
-7.96654e-06
7.95169e-06
1.48534e-08
-6.02356e-06
5.97398e-06
4.95831e-08
7.02492e-09
-7.96648e-06
-4.2739e-09
-6.05642e-06
1.25614e-06
4.80028e-06
-7.95606e-06
-1.04815e-08
7.96592e-06
2.60894e-09
-7.95286e-06
-1.15908e-08
-3.16178e-08
-7.96697e-06
4.92249e-10
-5.72871e-06
-6.70074e-07
6.39878e-06
4.57619e-06
3.34442e-08
-7.93476e-06
5.97515e-06
-2.61012e-08
-7.9047e-06
7.9047e-06
-1.52873e-08
7.96209e-06
3.83055e-09
-6.30132e-09
1.23385e-08
1.27028e-08
7.9651e-06
-3.01634e-09
4.70704e-09
7.96304e-06
-7.9631e-06
5.95625e-11
5.74796e-06
-5.74796e-06
-7.9466e-06
7.92953e-06
1.70746e-08
7.91792e-06
-7.90978e-06
-8.13467e-09
-1.11659e-08
7.96011e-06
4.98756e-09
7.96051e-06
2.53326e-09
-2.98597e-09
7.96132e-06
7.95351e-06
-7.95792e-06
4.40916e-09
-8.03025e-06
-7.92809e-06
-1.85109e-08
6.12928e-06
-7.51591e-08
7.94637e-06
7.14322e-09
6.66399e-08
7.95243e-06
-7.9437e-06
-8.72855e-09
-5.68081e-06
5.68081e-06
4.44314e-08
7.91809e-06
-7.90346e-06
7.91614e-06
-1.26747e-08
7.95074e-06
1.69321e-09
6.3792e-08
5.94362e-06
7.94132e-06
-7.93835e-06
-2.97393e-09
-7.87874e-06
-2.47242e-08
7.91881e-06
-7.92529e-06
6.47911e-09
7.9362e-06
5.12891e-09
7.95088e-06
9.63135e-09
-7.87947e-08
-7.85883e-06
-1.34887e-08
-7.00155e-07
-5.34061e-06
7.90644e-06
-7.9141e-06
7.66451e-09
2.3817e-07
5.50979e-06
7.94031e-06
-7.93287e-06
-7.43884e-09
-7.04743e-09
-1.35265e-07
-6.6085e-06
6.74377e-06
-5.75158e-06
5.81686e-06
-6.52846e-08
-7.86939e-06
7.87191e-06
-2.51573e-09
7.93119e-06
9.12217e-09
-7.90776e-06
-4.94447e-06
7.98859e-06
7.93427e-06
-7.92299e-06
-1.12798e-08
-7.94196e-06
7.94217e-06
-2.11119e-10
7.91908e-06
-7.9119e-06
-7.18615e-09
-7.694e-07
-6.7923e-06
7.5617e-06
7.92614e-06
8.12625e-09
-7.87539e-06
5.99786e-09
7.93541e-06
-7.92523e-06
-1.01751e-08
5.96202e-06
-6.10564e-06
6.10564e-06
7.93247e-06
-7.91753e-06
-1.49392e-08
-1.52934e-08
7.93565e-06
-1.24335e-08
-5.97058e-06
7.9213e-06
1.1167e-08
-7.94125e-06
-1.48126e-08
-7.86334e-06
7.8675e-06
-4.1605e-09
7.94203e-06
4.33875e-09
1.33936e-07
7.86229e-06
-1.67145e-09
7.93463e-06
2.01171e-08
5.94322e-06
3.1927e-08
9.27188e-10
-7.87108e-06
7.73686e-09
6.06329e-07
2.19815e-08
2.56314e-07
7.91166e-06
-7.91908e-06
7.42176e-09
-7.85501e-06
7.86413e-06
-9.12013e-09
1.40188e-07
-5.95149e-06
5.81131e-06
1.06378e-06
-6.19934e-06
5.13556e-06
2.27328e-06
5.61908e-06
-5.61908e-06
7.90621e-06
-7.90621e-06
-6.51286e-06
3.6444e-09
-7.92122e-06
6.06766e-06
7.93291e-06
1.78304e-08
-1.49725e-06
-2.78205e-06
4.2793e-06
-7.86644e-06
1.14299e-08
-7.87099e-06
-2.5523e-07
3.36366e-06
-5.55087e-06
2.1872e-06
-5.44134e-09
5.36595e-08
7.86464e-06
2.26822e-08
5.95782e-06
-7.94407e-06
1.66978e-08
7.91208e-06
5.04712e-06
-6.15826e-06
1.11114e-06
5.137e-06
-1.77333e-06
-9.87196e-09
-7.9045e-06
7.94523e-06
-7.89157e-06
-7.92256e-06
-7.84463e-06
7.83718e-06
7.44805e-09
1.73344e-09
7.92585e-06
7.89801e-06
8.19527e-09
7.21682e-06
-4.78877e-06
-2.42805e-06
-2.8573e-08
6.02882e-06
7.92373e-06
1.2468e-08
7.2141e-06
-7.9835e-06
5.34669e-08
7.86445e-06
-9.33291e-09
-7.90173e-06
-7.85376e-06
9.13428e-09
-5.77012e-06
1.85444e-08
6.06174e-06
-4.85988e-06
-1.20187e-06
7.88397e-06
-7.88467e-06
6.91899e-10
-9.14258e-09
2.2745e-06
-3.19749e-06
-2.99644e-06
6.19394e-06
7.89861e-06
-7.91077e-06
1.21673e-08
6.2966e-06
-6.22411e-06
-2.26729e-08
6.02884e-06
-5.17754e-06
3.68029e-06
7.89066e-06
-7.8986e-06
7.94005e-09
7.93598e-06
-7.88252e-06
-5.94477e-06
1.96806e-07
-5.96745e-06
5.96039e-06
7.06039e-09
5.79771e-06
-5.93297e-06
1.2552e-07
7.85971e-06
-6.01876e-06
5.84025e-06
-2.125e-07
7.92378e-06
-7.91417e-06
-9.60947e-09
6.17022e-06
-5.89521e-06
-2.75012e-07
7.89801e-06
-4.7627e-09
-7.90244e-06
-5.84172e-06
1.95575e-08
7.3206e-07
4.48723e-06
-5.21929e-06
-7.83461e-06
7.82612e-06
8.49757e-09
7.88563e-06
2.75306e-08
-4.99473e-06
-1.04851e-06
5.72714e-08
7.86181e-06
7.91076e-06
-7.92918e-06
1.84166e-08
7.90098e-06
-1.46081e-08
-7.87615e-06
-6.18091e-06
-1.04146e-06
7.91475e-06
1.64324e-08
8.41342e-06
-1.72225e-06
-4.77658e-08
7.9068e-06
-7.85903e-06
7.90343e-06
7.33289e-09
-7.84573e-06
1.11125e-08
-7.86869e-06
-5.6195e-08
-1.51255e-08
7.80124e-06
-7.78612e-06
1.02493e-08
7.90357e-06
7.93702e-06
-7.87975e-06
-7.91208e-06
-3.00745e-08
6.03119e-06
-8.23614e-09
5.98275e-06
-3.1013e-07
-5.67262e-06
8.02198e-08
5.90253e-06
-7.81236e-06
7.79723e-06
-7.91098e-06
-1.71156e-08
5.02195e-06
1.03979e-06
-3.00551e-08
6.11949e-06
-6.08944e-06
-5.06787e-06
-4.24092e-06
4.97298e-06
-6.61276e-06
8.16644e-07
5.79612e-06
7.90025e-06
6.01416e-09
-7.90929e-06
7.83535e-08
7.86688e-06
7.88836e-06
-7.88952e-06
1.15843e-09
7.90561e-06
-7.88209e-06
-2.35164e-08
-7.91631e-06
5.16076e-09
-1.14674e-08
-5.97306e-06
5.98453e-06
1.13847e-09
7.91449e-06
-5.49153e-06
1.60699e-06
-7.90589e-06
7.9015e-06
4.39109e-09
-7.82361e-06
7.81429e-06
9.31591e-09
7.61072e-08
6.46969e-06
-6.28182e-06
4.73945e-06
-1.13118e-07
-4.09128e-08
7.91123e-06
-7.87031e-06
-7.05536e-06
3.85787e-06
7.89749e-06
6.99398e-09
-7.90741e-06
7.90573e-06
2.04171e-08
-7.39005e-06
7.45488e-08
7.3155e-06
1.23312e-08
-7.83594e-06
7.89008e-06
-7.88178e-06
-8.29897e-09
-2.49148e-07
7.93696e-06
-7.68782e-06
-1.18037e-08
-1.62112e-06
7.427e-06
-5.80588e-06
-5.94477e-06
-6.6002e-06
7.89504e-06
-4.3801e-09
6.91583e-08
7.86682e-06
7.69635e-06
7.96938e-06
-7.96325e-06
-6.13714e-09
-8.53377e-10
-5.98175e-06
5.9826e-06
-7.89956e-06
7.89421e-06
5.35329e-09
1.59597e-07
-5.94863e-06
5.78903e-06
7.91001e-06
-7.9067e-06
-3.31826e-09
-6.12498e-06
6.09493e-06
7.88674e-06
-7.88068e-06
-6.06469e-09
2.21074e-08
7.8835e-06
-8.46656e-08
7.92877e-06
-7.90468e-06
8.44527e-08
-5.83175e-06
7.90419e-06
-7.90286e-06
-1.33326e-09
7.90038e-06
4.61713e-09
-7.90352e-06
7.85996e-06
1.67194e-08
-7.87668e-06
1.88144e-09
7.90523e-06
-7.88313e-06
-1.87232e-08
-5.98633e-06
6.00505e-06
4.24381e-06
-6.24565e-06
2.00185e-06
-1.33332e-06
-6.05672e-06
-5.79993e-06
-1.30706e-06
-5.09448e-06
-7.89552e-06
4.54074e-08
7.85011e-06
-6.02293e-06
5.98633e-06
3.66042e-08
-1.83241e-06
-4.84696e-06
-7.89152e-06
7.04556e-06
-7.87518e-06
7.88901e-06
-1.38314e-08
-6.58217e-06
6.54814e-07
5.92736e-06
6.28027e-06
-4.82636e-06
-1.45391e-06
-7.90269e-06
1.5796e-08
7.88689e-06
5.99521e-06
-5.92074e-06
1.64888e-08
7.87359e-06
-7.90357e-06
8.0086e-09
7.8967e-06
7.89565e-06
2.56544e-08
-1.30212e-09
-7.90146e-06
-2.54371e-08
-7.88045e-06
-7.88307e-06
5.98815e-06
-5.91361e-06
-3.3533e-08
1.68727e-06
5.2255e-06
-5.41296e-06
5.41296e-06
6.84305e-08
7.86859e-06
-8.95701e-06
-7.28816e-06
7.28731e-06
7.90631e-06
5.98374e-06
-5.94121e-06
-7.89407e-06
7.86863e-06
-6.6718e-06
6.8314e-06
7.88863e-06
-7.88174e-06
-6.88817e-09
9.51158e-09
7.89693e-06
-7.9892e-06
6.01228e-06
-6.03101e-06
-7.89191e-06
1.31734e-08
2.97108e-06
7.91124e-06
-7.90162e-06
-9.61789e-09
-7.90609e-06
7.88899e-06
-7.88241e-06
-6.57936e-09
-7.88764e-06
-7.87729e-09
7.87105e-06
-7.84694e-06
-6.03438e-06
7.25422e-06
7.8822e-06
-7.87959e-06
-2.61085e-09
-1.38914e-08
7.87385e-06
-6.02293e-06
5.21927e-06
-5.65712e-06
4.37853e-07
-9.70575e-06
9.70575e-06
7.90257e-06
7.90412e-06
-2.00057e-08
1.31831e-08
-7.90204e-06
7.92929e-06
-2.72465e-08
7.88662e-06
-7.88003e-06
-6.58675e-09
-6.54498e-06
6.2338e-06
2.4237e-08
7.88256e-06
-7.90262e-06
2.12916e-08
7.88132e-06
-7.87955e-06
7.89657e-06
-7.88597e-06
-6.05149e-06
-7.89606e-06
2.63043e-08
7.86976e-06
-6.06056e-06
-1.69834e-08
5.91574e-06
-5.96115e-06
4.54145e-08
7.87628e-06
-7.88292e-06
6.63807e-09
1.45618e-07
-7.89593e-06
7.88286e-06
1.30623e-08
7.89059e-06
-5.785e-06
-5.74384e-06
-9.78813e-08
7.90099e-06
-7.90099e-06
-4.07117e-08
6.00273e-06
-7.8967e-06
7.88515e-06
-7.87857e-06
-6.5727e-09
7.89993e-06
-4.39325e-08
-7.88994e-06
-5.8725e-06
-7.36001e-07
-6.01856e-06
4.72042e-06
-5.27247e-06
5.52053e-07
-1.18276e-06
-5.09718e-06
6.27994e-06
7.87074e-06
-7.84992e-06
5.09751e-06
-5.95149e-06
-1.69462e-08
-7.88574e-06
7.88938e-06
-7.88283e-06
-6.54226e-09
6.06105e-06
-6.09061e-06
-1.6691e-06
-1.09928e-06
2.76838e-06
-6.28773e-06
6.34007e-06
6.08295e-06
-6.00273e-06
-2.39758e-08
-5.89868e-06
5.92265e-06
-2.71989e-08
-5.85427e-06
5.88147e-06
1.98182e-08
-6.13235e-06
6.11253e-06
5.60635e-08
-6.15702e-06
6.10096e-06
2.83649e-08
-6.03449e-06
6.00613e-06
-1.20306e-08
-5.9055e-06
5.91753e-06
-1.42635e-08
-5.90059e-06
5.91486e-06
3.55408e-06
-2.39426e-06
-1.15982e-06
5.24026e-06
3.82928e-08
7.87293e-06
5.77761e-06
-5.8084e-06
3.07913e-08
1.85563e-08
-7.88629e-06
7.86773e-06
7.90663e-06
-7.90663e-06
7.80194e-06
-2.04372e-09
-7.7999e-06
-2.61456e-08
-7.86793e-06
7.88457e-06
-7.87772e-06
-6.85986e-09
-4.90014e-06
-6.43485e-06
-1.47322e-07
5.16694e-06
1.00328e-06
7.90028e-06
-7.88976e-06
-1.05244e-08
-6.01394e-06
6.24795e-06
2.61021e-08
7.87913e-06
-4.33351e-06
-2.72185e-06
5.73677e-08
5.6617e-06
-5.71906e-06
-4.04254e-06
-6.82848e-07
-1.35624e-06
-8.4083e-07
2.19707e-06
5.93056e-06
5.93157e-06
6.19146e-06
6.19127e-06
6.14834e-06
6.07052e-06
-2.75739e-08
-5.94778e-06
5.97535e-06
5.95012e-06
-6.89054e-09
-2.34447e-06
7.8871e-06
-7.86855e-06
-1.94522e-07
6.34383e-06
-7.91123e-06
-5.40176e-06
6.67606e-06
7.7913e-06
7.0588e-09
-7.79835e-06
7.91695e-06
-1.59609e-08
-7.90001e-06
2.82591e-08
7.87175e-06
-5.95794e-06
-5.97306e-06
5.97296e-06
-6.00053e-06
-5.43632e-06
6.5702e-06
-1.13388e-06
-1.40809e-08
-7.88198e-06
4.11538e-06
-5.13583e-06
1.30272e-08
-7.8948e-06
-7.88555e-06
-2.09816e-06
-3.07938e-06
-7.8714e-06
-1.48938e-08
6.04369e-06
1.88498e-06
4.5938e-06
7.87695e-06
-7.87089e-06
-6.06036e-09
6.00622e-06
-3.97915e-06
-2.02706e-06
-2.85871e-06
1.50247e-06
-3.31287e-06
7.17075e-06
-2.87364e-06
5.97431e-06
-3.10067e-06
2.33802e-09
7.89627e-06
-7.84234e-06
7.88242e-06
-7.88703e-06
4.60606e-09
-4.4652e-06
1.90545e-06
2.55975e-06
-2.63645e-08
-5.94601e-06
5.97237e-06
8.25734e-06
-3.65756e-06
-4.59978e-06
5.93873e-09
7.796e-06
-1.71593e-06
-2.74928e-06
-5.76133e-06
5.8187e-06
4.91397e-06
3.26293e-07
-5.73152e-06
-1.20693e-08
-5.95461e-06
5.96668e-06
6.15205e-06
-5.96098e-06
-3.66349e-06
-1.38795e-06
5.05144e-06
-7.87035e-06
7.87265e-06
-2.30415e-09
-5.81947e-06
5.90392e-06
7.87913e-06
-7.88423e-06
-5.26679e-06
-1.46178e-07
-7.93758e-06
7.90753e-06
-4.11018e-06
5.95853e-09
7.88305e-06
6.87736e-06
-3.80094e-06
-3.07642e-06
5.82321e-06
-1.10279e-06
6.50253e-06
-8.40829e-07
5.96324e-06
-5.98961e-06
7.86833e-06
-7.86877e-06
4.41512e-10
5.9707e-06
-5.98277e-06
7.23985e-09
-7.86437e-06
7.85713e-06
-3.31809e-06
-7.92096e-07
1.28447e-08
-6.04723e-06