/*--------------------------------*- C++ -*----------------------------------*\
  =========                 |
  \\      /  F ield         | OpenFOAM: The Open Source CFD Toolbox
   \\    /   O peration     | Website:  https://openfoam.org
    \\  /    A nd           | Version:  12
     \\/     M anipulation  |
\*---------------------------------------------------------------------------*/
FoamFile
{
    format      ascii;
    class       volVectorField;
    location    "0.28";
    object      U;
}
// * * * * * * * * * * * * * * * * * * * * * * * * * * * * * * * * * * * * * //

dimensions      [0 1 -1 0 0 0 0];

internalField   nonuniform List<vector> 
4428
(
(0.00212988 0.000807079 1.01427e-16)
(-0.00215784 0.000888297 -9.03812e-17)
(-0.00194154 0.000889131 0)
(-0.00202836 0.000853062 0)
(0.00195469 0.00161222 8.16376e-17)
(0.002004 0.00164599 3.20398e-21)
(-0.00193781 0.00109562 0)
(-0.00217646 0.00077775 1.46408e-16)
(0.00207817 0.000840767 -2.49061e-16)
(0.00213981 0.000630372 9.95357e-17)
(-0.00196661 0.000689538 -1.73327e-16)
(0.00200467 0.000824505 -1.76859e-16)
(-0.00222765 0.000484495 -2.03654e-16)
(-0.000704793 0.00250884 -9.58137e-17)
(0.00209662 0.000816501 0)
(0.00190725 0.000707364 0)
(0.00215119 0.000770858 0)
(-0.00196835 0.000686793 0)
(-0.00224214 0.000483273 0)
(0.00211721 0.000822458 0)
(0.00075662 0.000619639 -4.48032e-16)
(-0.00214655 0.000824846 -1.77698e-16)
(-0.00203082 0.000858632 0)
(-0.0021946 0.00076141 0)
(-0.00213653 0.000814375 2.26613e-17)
(-0.00203237 0.000760104 0)
(-0.00204817 0.00106969 1.03354e-16)
(0.00205083 0.00068304 2.07799e-16)
(0.00190988 0.000936988 0)
(-0.00224776 0.000534684 0)
(0.00207219 0.000530067 0)
(-0.00217233 0.000824904 -1.842e-16)
(0.00211439 0.000672342 -9.00178e-17)
(-0.00219901 0.0010606 -2.77415e-16)
(-5.78417e-06 0.00289418 4.6976e-17)
(-0.00216848 0.000842098 1.99858e-16)
(-0.00211892 0.00105728 -4.43976e-21)
(0.00197355 0.00266099 1.27039e-17)
(-0.000333827 0.0025043 -2.62227e-17)
(-0.00203259 0.000888347 0)
(0.00212569 0.000765928 0)
(0.00195576 0.00063871 0)
(0.00204093 0.00069787 9.24302e-17)
(-0.00220823 0.000717066 1.66054e-16)
(0.00213024 0.000688123 0)
(0.00174336 0.000647869 0)
(0.00204544 0.00194585 -9.97812e-17)
(-0.00203055 0.000975299 2.0314e-16)
(-0.00205564 0.00085353 2.24455e-16)
(-0.00212124 0.000927438 0)
(0.00212294 0.000880949 0)
(0.00191805 0.000900231 1.88119e-16)
(0.00215932 0.000616937 -9.13167e-17)
(0.00194396 0.000919481 0)
(0.00197966 0.000830039 -1.39781e-17)
(0.00126583 0.000612902 0)
(0.00187927 0.000885385 -9.29909e-17)
(-0.00208644 0.00069373 0)
(0.00177309 0.00189708 1.82956e-16)
(0.0020748 0.000722369 -1.82007e-16)
(0.00216859 0.000835341 1.67093e-16)
(-0.00216099 0.000692341 0)
(0.00189568 0.000758251 2.79947e-16)
(-0.00216706 0.000820619 9.26964e-17)
(-0.00216397 0.000843754 0)
(0.0019951 0.000877608 0)
(-0.0022103 0.0007303 1.73154e-16)
(-0.00204528 0.000870068 -1.85817e-16)
(0.00205681 0.000737112 -1.82182e-16)
(-0.00208599 0.000907501 -3.61902e-16)
(-0.00221834 0.000700292 -9.16113e-17)
(0.00209635 0.000951469 2.12648e-16)
(0.00225835 0.000976555 5.80491e-17)
(-0.00201815 0.000837338 4.46944e-17)
(0.00212336 0.000739544 1.96645e-16)
(-3.69265e-05 0.00287063 -1.8329e-16)
(0.00215524 0.00098265 0)
(0.00221859 0.000852324 0)
(-0.00195501 0.00110182 -1.18141e-16)
(0.00152991 0.000732789 -4.38193e-21)
(0.00189343 0.000967537 -1.97535e-16)
(-0.00220511 0.000701836 0)
(0.00205484 0.000977624 -1.8106e-16)
(0.00205859 0.000845061 -1.72063e-16)
(0.00215504 0.00076666 3.18299e-16)
(-0.00234409 0.000763503 -2.54682e-16)
(-0.000265738 0.0032085 1.1514e-16)
(-0.00220133 0.000805422 0)
(-0.00216161 0.000828636 -9.60322e-17)
(0.00197987 0.000868319 2.04738e-17)
(0.00212448 0.000644099 8.36635e-17)
(0.00217892 0.00078013 -1.59365e-16)
(-0.00217745 0.000867543 0)
(-0.0021425 0.000796178 0)
(-0.00216287 0.000844608 9.81674e-17)
(-0.00210518 0.000872275 1.67117e-16)
(0.00212112 0.000844852 1.13528e-16)
(-0.00217376 0.000825136 -1.199e-16)
(-0.00222066 0.000694848 9.28688e-17)
(0.00200432 0.00105789 0)
(0.00201995 0.000910462 -2.25137e-17)
(0.00208445 0.000814115 0)
(0.00213548 0.000755475 0)
(0.00193304 0.00072179 -1.87983e-16)
(0.00185627 0.000860241 -1.037e-16)
(0.00196968 0.000952846 2.4905e-21)
(0.00206869 0.000851368 1.90322e-16)
(-0.00212272 0.00100736 -1.22453e-16)
(0.00211578 0.000846021 -1.2082e-16)
(0.00204418 0.000989627 0)
(0.00207544 0.000696385 1.64693e-16)
(0.0020885 0.000803522 -1.94801e-16)
(-0.00201574 0.000826669 2.65974e-21)
(0.00199078 0.000754187 1.65961e-16)
(-0.0011931 0.000751815 1.15541e-16)
(-0.00220979 0.000680536 1.8023e-16)
(-0.000487548 0.0027869 0)
(0.000859514 0.000668449 5.24742e-17)
(-0.00223713 0.000751612 8.87636e-17)
(0.00222023 0.000853834 -1.12857e-16)
(0.00219283 0.000855665 2.11526e-16)
(-0.00195737 0.00110962 2.41271e-16)
(0.00144488 0.00236378 -1.96891e-16)
(0.00209627 0.000678305 -3.03613e-16)
(-1.55451e-05 0.00289451 1.78755e-16)
(-0.00216819 0.000819989 0)
(-0.00219903 0.000748241 -2.72253e-16)
(0.00200229 0.00082524 9.95073e-17)
(-0.0021649 0.00088053 -3.04095e-16)
(-0.00216514 0.000841188 9.6675e-17)
(-0.00221625 0.000705998 -1.87129e-16)
(-0.00212429 0.000873374 0)
(0.00213443 0.000851545 2.24122e-16)
(0.00205274 0.000763326 0)
(0.00208065 0.000813685 0)
(0.00222321 0.00096063 6.54179e-21)
(0.00216707 0.000903046 -2.43664e-16)
(-0.00220527 0.000689113 -1.82385e-16)
(-0.00216977 0.000842027 -1.83547e-16)
(-0.00214977 0.000871333 1.43946e-16)
(-0.00213163 0.00101879 -1.23704e-16)
(-0.00217322 0.000785916 -9.67467e-17)
(0.00204821 0.000818835 0)
(0.00205826 0.000842778 -1.99425e-16)
(0.00215795 0.00081095 0)
(0.0020309 0.000777652 9.67632e-17)
(0.00217317 0.000965585 1.28471e-16)
(-5.84253e-05 0.00205576 -9.13933e-17)
(0.00227256 0.000645787 2.88883e-16)
(4.8908e-06 0.00288714 4.54399e-17)
(-0.00216679 0.000819634 -1.9951e-16)
(-0.00141498 0.000624689 1.00282e-16)
(0.00202501 0.000678833 -9.60053e-21)
(0.00225364 0.000783764 -2.48619e-16)
(-0.00216369 0.000840985 2.9159e-16)
(0.00220128 0.000825834 0)
(0.0019832 0.00134063 -1.77124e-16)
(0.00214469 0.000646086 -9.48467e-17)
(0.00208875 0.000776802 -1.78764e-16)
(-0.00218509 0.000721562 -9.12329e-17)
(-0.0021549 0.000894084 1.95444e-16)
(0.00210497 0.000830679 0)
(0.00224948 0.000714327 0)
(-0.000759861 0.000339539 -2.17176e-16)
(-0.00229687 0.000948006 1.19561e-16)
(-0.00220696 0.000695181 0)
(-0.0021609 0.000792501 0)
(0.00224584 0.000760708 0)
(-0.00215765 0.000838879 1.90216e-21)
(-0.00218265 0.000931211 9.36771e-17)
(-0.00221518 0.000734554 -9.37982e-17)
(0.00217582 0.000858199 3.94952e-21)
(-0.00218114 0.000825337 0)
(0.00197423 0.000828057 0)
(0.00200121 0.00258927 -1.16371e-17)
(-0.00232244 0.000963052 2.29073e-16)
(0.00218261 0.000793081 0)
(0.00192038 0.000948846 2.14586e-16)
(0.00203762 0.000851653 2.17936e-16)
(-0.00232181 0.000931502 1.14316e-16)
(-0.000241998 0.00292054 -7.10128e-21)
(-0.00208975 0.000853376 1.75076e-16)
(-0.00218316 0.0007669 1.91948e-16)
(0.0019899 0.000770167 0)
(-0.00216592 0.000819951 3.00568e-16)
(-0.00216348 0.00099134 -9.52157e-17)
(0.00214859 0.00083013 0)
(-0.00216085 0.000839831 0)
(0.00182344 0.000801676 3.43566e-16)
(0.00210184 0.000926958 0)
(0.00209273 0.000766271 0)
(0.00219038 0.00103494 2.58465e-17)
(0.00212968 0.000761238 0)
(0.00217032 0.000891715 -3.67867e-16)
(-0.0021101 0.000979334 0)
(-0.00209831 0.000964872 -1.80865e-16)
(-0.00209845 0.000962249 2.7092e-16)
(-0.00206532 0.000945656 8.88765e-17)
(0.00294431 0.0017035 1.48755e-16)
(-0.000649483 0.00309124 0)
(0.00213637 0.000972391 2.13761e-16)
(-0.002181 0.000790109 -1.94078e-16)
(0.00167495 0.000896509 -1.90306e-16)
(-0.00219245 0.000718144 0)
(0.00194972 0.00074764 -1.76629e-16)
(0.00211306 0.000742422 -2.98055e-18)
(-0.00215335 0.000840428 9.3257e-17)
(-0.000477704 0.00334501 -1.77904e-16)
(-0.00103382 0.00289803 1.11839e-17)
(0.00143348 0.000755192 0)
(0.00215846 0.000921601 0)
(0.00230469 0.000833603 0)
(0.00215364 0.000905805 5.95162e-21)
(-0.0021775 0.000768054 0)
(0.00210137 0.000805561 0)
(-0.00212331 0.000957326 -1.40087e-16)
(-0.00209995 0.000943212 1.83782e-16)
(3.26578e-05 0.00289096 -1.8469e-16)
(-0.00203713 0.000764786 1.99296e-16)
(-0.0020893 0.00095646 -4.53587e-17)
(0.00215533 0.00089363 1.95362e-16)
(0.00223635 0.000785822 -6.15105e-17)
(-0.00214942 0.000835524 1.85467e-16)
(0.00218764 0.000938522 0)
(-0.00210902 0.000963622 0)
(-0.00216601 0.000820998 0)
(-0.00220248 0.000835916 -1.08725e-16)
(0.00209275 0.00075575 -1.93041e-16)
(0.00200093 0.000834223 3.729e-21)
(-0.00216033 0.000839937 0)
(-0.00216812 0.000788235 9.8323e-17)
(-0.00133001 0.00263934 0)
(0.00181987 0.00107045 0)
(0.00031319 0.00318347 8.61728e-17)
(0.00203773 0.000813445 5.74621e-17)
(-0.0021204 0.000935054 0)
(-0.00210954 0.000951711 0)
(-0.00210785 0.000946126 1.88215e-16)
(-0.00211678 0.000943289 -1.86172e-16)
(-0.00218849 0.000729571 2.97766e-16)
(-0.000213377 0.000525308 5.13886e-17)
(-0.00218737 0.000833567 -5.90054e-17)
(-0.00208794 0.000944481 6.23692e-17)
(0.0021179 0.000828576 2.23733e-17)
(-0.00217396 0.000774372 -9.62574e-17)
(-0.000596352 0.00215681 -1.01154e-16)
(-0.00215045 0.00102444 1.89324e-16)
(-0.00217514 0.000776524 1.92814e-16)
(0.00250644 0.0016766 0)
(-0.000243394 0.00218348 0)
(-0.00226344 0.000941029 6.12236e-21)
(0.002055 0.000818162 2.04393e-16)
(0.00218166 0.000882391 -1.05648e-16)
(-0.00210412 0.000944016 1.81886e-16)
(0.00189681 0.000708799 -1.31316e-16)
(0.000368506 0.000252403 1.07918e-16)
(-0.00211114 0.000946734 -3.65584e-16)
(4.98121e-05 0.00287204 0)
(-0.00246049 0.000900742 -3.66781e-17)
(-0.0021242 0.000943656 -2.1176e-16)
(-0.00211656 0.000944329 1.90017e-16)
(-0.000748094 0.000380248 2.17218e-16)
(-0.00216584 0.000793277 0)
(0.00226085 0.000508309 1.23011e-16)
(-0.00210781 0.000941475 -9.37838e-17)
(-0.00215251 0.000836984 -1.00072e-16)
(0.00214036 0.0007758 0)
(-0.00211236 0.000945917 0)
(-0.00145753 0.00319504 1.37274e-16)
(-0.0022341 0.000754085 -1.83735e-16)
(0.00209681 0.000725382 0)
(0.00219412 0.000980767 2.37176e-16)
(0.00209923 0.000836496 1.23123e-17)
(-0.000447104 0.0023315 2.58437e-16)
(-0.00216748 0.000819339 0)
(0.00203723 0.000857861 1.9813e-16)
(0.00211654 0.000814122 -2.63559e-16)
(-0.00217007 0.000787117 1.94295e-16)
(0.00222046 0.00104008 0)
(0.000354132 0.000249946 -1.10465e-16)
(-0.00231858 0.000971031 -2.32732e-22)
(-0.000400756 0.00298182 9.63394e-17)
(0.00210875 0.000782971 0)
(-0.00218466 0.000738562 -2.99173e-16)
(0.00194622 0.00110845 3.93342e-16)
(0.00191473 0.00112774 -9.1243e-17)
(0.0021283 0.000831827 -1.32949e-17)
(0.00212726 0.000715459 -1.26246e-16)
(0.00212543 0.000838231 1.94435e-16)
(0.00215481 0.000790977 0)
(-0.00237773 0.000734897 1.43576e-16)
(-0.00224314 0.000729433 -1.87089e-16)
(-0.00212457 0.000931461 -7.47189e-19)
(0.00201967 0.00095565 0)
(0.00197723 0.000843425 2.14669e-16)
(0.00067937 0.000255515 2.31985e-16)
(-0.00215419 0.000804307 1.95532e-16)
(-0.00210617 0.000939783 2.07961e-16)
(-0.00215216 0.000961995 0)
(-0.00133294 0.00311991 1.96759e-16)
(-0.0021734 0.000792188 5.9217e-21)
(0.00200462 0.000736145 1.14693e-16)
(-0.00216369 0.000797589 0)
(-0.00211867 0.000942042 -1.18782e-17)
(-0.00211808 0.000948681 0)
(-0.00211718 0.000945883 -1.8591e-16)
(-0.00218346 0.000839416 0)
(-0.000280634 0.00317603 -1.1959e-16)
(0.00145023 0.000795204 -3.44556e-16)
(0.00211065 0.00104122 1.25595e-16)
(-0.00217001 0.000793319 9.79701e-17)
(0.00207258 0.000817208 0)
(0.00221603 0.00102333 -1.26564e-16)
(-0.000367666 0.0031588 -1.90451e-16)
(0.00130861 0.000440368 -2.23905e-16)
(0.00210048 0.000859978 0)
(0.00216272 0.000940032 0)
(0.0020821 0.000885388 -1.87614e-16)
(-0.00218188 0.000749358 0)
(-0.00215516 0.000822444 1.96568e-16)
(-0.000531088 0.00347495 -6.17596e-18)
(-0.00228546 0.000957447 -1.0149e-16)
(-0.0020089 0.000773245 6.1087e-17)
(0.00205956 0.000797362 3.8932e-16)
(-0.00153762 0.0047505 -1.46073e-16)
(0.00352519 0.0013865 -1.97873e-16)
(0.00200117 0.000883165 -2.12582e-16)
(-0.00214276 0.000825245 9.64297e-17)
(-0.0021421 0.000989855 -1.21773e-17)
(-0.00210037 0.000955036 -1.89493e-16)
(0.00209644 0.00079913 2.09787e-16)
(-0.00214486 0.000821698 0)
(-0.00216462 0.000799567 9.9084e-17)
(-0.00245688 0.000894179 1.50956e-16)
(-0.00217603 0.0010215 0)
(-0.00214488 0.000966741 0)
(0.00223956 0.00101067 -1.23282e-16)
(0.00199279 0.000777453 0)
(-0.00215973 0.000823599 0)
(0.00201494 0.000745617 0)
(-0.00212115 0.000948454 1.18323e-17)
(-0.00214333 0.000941134 7.5473e-19)
(0.00195987 0.00067199 0)
(0.00212424 0.000812525 1.92888e-16)
(-5.24415e-05 0.00288909 0)
(0.00208162 0.000710425 0)
(-0.00217104 0.000796091 4.92534e-17)
(-0.00218538 0.000785258 -3.01481e-16)
(0.000227396 0.0012933 0)
(-0.0021503 0.00082366 -1.93417e-16)
(-0.00221804 0.000500256 9.23812e-17)
(-0.0022108 0.000876247 -4.24793e-21)
(-0.00231992 0.000792227 -2.43394e-16)
(-0.00245731 0.000877117 1.51158e-16)
(-0.00212198 0.000988309 0)
(-0.00218685 0.000759509 2.02114e-16)
(-0.00214755 0.000825106 1.00294e-16)
(0.00211177 0.000795925 0)
(-0.0021284 0.000745711 1.62544e-16)
(-0.00215424 0.000811098 -2.68737e-16)
(3.8024e-05 0.00281394 0)
(-0.00211346 0.000940351 -2.80434e-16)
(-0.0021914 0.000878642 0)
(-0.00217142 0.00080957 0)
(0.0021517 0.000802574 2.03116e-16)
(-0.00216289 0.000791601 1.01384e-16)
(0.00187955 0.000690249 2.14781e-16)
(0.00215519 0.000861651 -2.0393e-16)
(-0.00152464 0.000733181 0)
(-0.0022964 0.000774632 0)
(-0.00215104 0.000824516 0)
(0.00210732 0.000817617 -2.12707e-16)
(0.00211327 0.000886794 0)
(0.00211785 0.000813243 0)
(-0.0023051 0.00100041 -2.9936e-16)
(0.000271727 0.00286184 2.17982e-16)
(-0.00213296 0.00098135 1.92278e-16)
(0.00216119 0.000670429 -2.15587e-16)
(-1.82463e-05 0.00150501 -6.19429e-17)
(-0.00216217 0.000843356 0)
(-0.00215964 0.000909084 2.99752e-16)
(-0.0020718 0.000962986 -1.80338e-16)
(0.000195379 0.0022001 1.08286e-16)
(0.00221115 0.000482041 0)
(0.00230118 0.00062043 1.14706e-16)
(0.00203525 0.000864182 1.778e-16)
(-0.000441138 0.000336511 2.10733e-16)
(-0.0021524 0.000804606 -9.03924e-17)
(0.00212583 0.000838355 0)
(0.00131915 0.000493534 0)
(0.00180256 0.00056374 3.86487e-16)
(-0.0021534 0.000826957 0)
(0.00223265 0.000741908 -1.07228e-16)
(-0.00229118 0.000610819 1.26092e-16)
(-0.00216607 0.000824359 9.58113e-17)
(0.00205214 0.000824102 -1.95165e-16)
(-0.00240097 0.000907253 -1.35978e-16)
(-0.00200329 0.000833816 1.84897e-16)
(-0.00235801 0.00108529 1.01007e-16)
(-0.00160888 0.000625872 -1.08942e-16)
(-0.00217248 0.000820371 0)
(-0.00216221 0.000822735 0)
(-0.000120428 0.00108289 0)
(-2.0149e-05 0.00280839 -2.50978e-16)
(-0.00231756 0.00082795 0)
(-0.00218826 0.00106645 -8.72296e-17)
(0.00209175 0.000820552 3.7616e-16)
(0.00201247 0.000851781 -1.11174e-16)
(0.00209352 0.000757765 3.79526e-16)
(0.00212157 0.000898607 -5.49148e-17)
(0.00210944 0.000801714 -5.54956e-21)
(-0.00214379 0.000862735 -4.91286e-17)
(-0.00215076 0.000832347 -9.6366e-17)
(-0.000174769 0.00332193 5.97382e-18)
(-0.00215756 0.000829619 -1.95295e-16)
(-0.00214381 0.000895008 -5.15027e-17)
(0.00201806 0.000874059 0)
(-0.00216117 0.000828736 -9.75862e-17)
(-0.00227149 0.000832602 -3.58916e-16)
(-0.00209001 0.000939916 -1.39393e-17)
(-0.00217349 0.000813739 0)
(-0.00219037 0.000720488 4.83493e-17)
(-0.00216147 0.000800576 -9.8766e-17)
(0.00229708 0.00101262 -2.08721e-16)
(-0.00214593 0.000849491 -9.94709e-17)
(0.000280791 0.00317588 6.96539e-18)
(0.00206063 0.0007539 2.44309e-17)
(-6.14076e-05 0.00315541 -1.98857e-16)
(-0.0023956 0.000962802 2.82347e-16)
(-0.00208954 0.000704612 -3.98526e-16)
(0.00210914 0.000814219 1.03053e-16)
(-0.00240034 0.000963386 1.25934e-16)
(0.000324607 0.00165692 8.11326e-17)
(-0.00213866 0.000847263 1.97978e-16)
(0.0020462 0.000707681 1.76669e-16)
(-2.3396e-05 0.00309704 0)
(-6.07713e-05 0.0027878 -2.83922e-16)
(-0.0021474 0.000886322 -1.57227e-16)
(0.00207459 0.000708808 -5.19581e-17)
(-2.42658e-05 0.00308894 7.90262e-19)
(0.00252304 0.00100231 9.76698e-17)
(-0.00199243 0.000793291 2.95294e-16)
(-0.0021677 0.000823467 -5.0988e-17)
(-0.00219293 0.000787329 0)
(-0.00225805 0.000840443 2.29028e-16)
(0.00208089 0.000839987 -2.02294e-16)
(-0.00215097 0.000834878 -9.68004e-17)
(0.00208722 0.000816523 0)
(-5.0416e-06 0.0030715 -2.0187e-16)
(-0.00225509 0.000872118 1.20767e-16)
(0.00241677 0.00217174 -3.66321e-16)
(0.00213537 0.000811553 0)
(-1.37466e-05 0.00307214 0)
(0.00219328 0.000880917 5.95787e-21)
(8.68342e-06 0.00306355 -2.02108e-16)
(4.82344e-06 0.00306912 4.01898e-16)
(-0.00214403 0.000840567 4.98488e-17)
(-0.000190631 0.00316147 1.97705e-16)
(-8.21422e-06 0.003061 0)
(-1.98791e-05 0.00307559 2.01153e-16)
(-0.00214629 0.000836581 0)
(0.00245945 0.00139503 0)
(9.64414e-06 0.00306748 0)
(-4.813e-06 0.00306695 -2.01436e-16)
(-0.00213826 0.000875012 0)
(-1.0785e-05 0.00306942 4.05267e-16)
(-0.00216288 0.000818473 0)
(-4.56167e-06 0.00306886 -2.02416e-16)
(-0.00214771 0.000836145 -2.9318e-16)
(-5.46452e-06 0.00305905 0)
(-0.00212649 0.000880484 9.67018e-17)
(-0.000963731 0.0035148 -4.71358e-17)
(0.00223681 0.000984012 2.50254e-16)
(0.00226229 0.000851909 0)
(6.12676e-07 0.00306492 1.4527e-20)
(-1.19286e-05 0.0030708 -1.99386e-16)
(-0.00217579 0.000732106 -8.51739e-17)
(0.00205597 0.000918125 -2.05741e-16)
(0.00188966 0.000763367 0)
(0.0020974 0.000802151 3.1026e-16)
(-2.32067e-06 0.00306749 2.01996e-16)
(-0.00213737 0.000840342 0)
(-7.53572e-05 0.00310175 2.0056e-16)
(-2.11884e-06 0.00306076 0)
(-5.32409e-06 0.00306535 -2.04877e-16)
(-0.00215583 0.000840182 0)
(0.00211454 0.00087966 1.95264e-16)
(-0.00216241 0.0008271 2.68357e-21)
(8.37206e-07 0.00305989 2.02882e-16)
(0.00214327 0.000784134 -4.19345e-16)
(0.000307956 0.00184525 0)
(-1.09576e-05 0.00307052 0)
(0.00237735 0.00109774 1.46623e-16)
(0.00207967 0.000731241 0)
(-0.000241474 0.00328937 0)
(-0.00215822 0.000817349 -3.52287e-16)
(-8.22409e-05 0.00314162 0)
(-0.00214998 0.000834167 9.75561e-17)
(-0.00182396 0.00155599 -5.25368e-17)
(-0.00213999 0.000875803 2.0111e-16)
(7.50675e-07 0.00306042 -4.04619e-16)
(-0.00220002 0.000794024 5.41566e-17)
(-0.00212428 0.000879854 1.92962e-16)
(-3.78099e-06 0.00306394 0)
(-7.60991e-06 0.00305939 -1.98246e-16)
(0.00200052 0.000688897 0)
(9.44581e-07 0.00306596 -2.04203e-16)
(1.72276e-06 0.00306464 0)
(-0.00014323 0.00318601 2.01272e-16)
(1.73564e-05 0.00279765 -2.27201e-16)
(-0.00205271 0.000858475 1.17404e-16)
(-4.45004e-05 0.00310726 9.81714e-20)
(0.00152364 0.000448807 0)
(-0.00219024 0.000805302 7.99842e-17)
(-0.00206118 0.000887643 4.68849e-17)
(6.31476e-06 0.00305813 4.05008e-16)
(-1.21594e-05 0.00306934 2.01598e-16)
(-0.00219758 0.000832799 -4.65993e-16)
(1.93392e-06 0.00306155 2.0268e-16)
(0.00195826 0.000641783 6.7826e-21)
(-1.54786e-05 0.00306333 2.00598e-16)
(-0.00216772 0.00082324 0)
(-0.00213791 0.000857391 5.12174e-17)
(-1.71271e-06 0.00306446 -1.4594e-20)
(0.0020828 0.00100678 2.10078e-16)
(-0.00215857 0.000839974 -1.0284e-16)
(-0.00212766 0.000874754 -8.98985e-17)
(-7.57113e-06 0.00306827 -2.01521e-16)
(0.00209666 0.000821153 3.5159e-18)
(-5.95992e-07 0.00306573 -1.45981e-20)
(-0.00217151 0.000821092 4.80859e-17)
(9.92157e-06 0.00306033 0)
(-0.00216159 0.000817602 0)
(-1.77217e-05 0.00306823 -2.01463e-16)
(1.53953e-06 0.00306357 2.02262e-16)
(0.00209847 0.000868133 -2.45276e-17)
(-0.00220646 0.000751701 2.19717e-16)
(-1.58807e-05 0.00306373 1.99768e-16)
(3.85178e-06 0.00306006 0)
(-0.00214305 0.000868731 0)
(-0.00213259 0.000877006 1.534e-16)
(-0.00219923 0.000706368 0)
(-0.000108006 0.00190232 -1.08308e-16)
(-5.91005e-07 0.00306543 2.02706e-16)
(-0.00212774 0.000873667 -1.4537e-16)
(-0.00214754 0.000831991 0)
(-0.00213547 0.000813843 5.3012e-17)
(-2.88748e-05 0.0030745 1.97004e-16)
(2.06633e-07 0.00306105 -1.46717e-20)
(-0.00215039 0.000822714 -5.14121e-17)
(0.00124564 0.000150052 -2.18992e-16)
(-2.72574e-05 0.00308113 -2.00422e-16)
(-8.58831e-06 0.00306882 2.02101e-16)
(4.40353e-06 0.00306112 2.02978e-16)
(-2.60202e-07 0.00307047 -2.00152e-16)
(0.00255784 0.00129415 -1.92044e-16)
(-1.78952e-05 0.00306386 -2.01105e-16)
(-0.00216487 0.000813801 0)
(-0.00209821 0.000751795 0)
(0.00201637 0.000765113 0)
(-4.66959e-06 0.00306084 -2.03567e-16)
(-0.00212496 0.000879812 2.48139e-16)
(0.00207247 0.000773544 -1.57149e-16)
(-0.00206139 0.000833392 2.7135e-16)
(-0.00215062 0.000833351 -1.96914e-16)
(-0.0021536 0.000831779 -1.01261e-16)
(-0.00232045 0.00109264 -1.00453e-16)
(-8.50517e-06 0.00306354 -4.05786e-16)
(8.33624e-06 0.0030609 8.46294e-20)
(-0.00217412 0.000888821 -5.80038e-17)
(-0.00215467 0.000865716 4.59953e-17)
(-0.00215399 0.000837826 -5.05261e-17)
(1.21922e-05 0.00306464 -2.02613e-16)
(2.64469e-06 0.00306087 4.10219e-16)
(-1.48241e-05 0.00306414 -2.02958e-16)
(2.65052e-06 0.00306416 -7.95354e-19)
(-0.00214788 0.000853128 4.91288e-17)
(-1.02949e-05 0.00306254 0)
(1.45161e-05 0.00306312 -2.0378e-16)
(1.00195e-05 0.00305978 2.02747e-16)
(1.25154e-05 0.00306479 3.50541e-20)
(-0.00215739 0.000807299 1.02068e-16)
(-1.73074e-05 0.00308122 0)
(-0.00215705 0.000820351 -2.00614e-16)
(-0.00219371 0.000796793 0)
(0.00211015 0.000808414 -2.22456e-16)
(-1.13267e-06 0.00306284 -1.57902e-18)
(0.00203037 0.000805113 1.979e-16)
(1.90767e-06 0.00306415 -1.45317e-20)
(-0.00018857 0.00314375 0)
(-0.0001249 0.00310336 -1.99268e-16)
(-0.00215678 0.000823529 0)
(-0.00217468 0.000820536 -9.86548e-17)
(2.07514e-05 0.00305914 0)
(-0.00213872 0.000830228 -2.14071e-16)
(-0.00215126 0.000843609 -1.06353e-16)
(0.00209927 0.000833831 2.13739e-16)
(1.1844e-06 0.00306042 -2.0308e-16)
(-1.72707e-05 0.00306425 -2.03156e-16)
(-0.00216091 0.000865226 5.55529e-17)
(-3.26426e-06 0.00306455 -2.00304e-16)
(-0.00212999 0.000809924 3.11582e-16)
(-1.38976e-05 0.00306195 -2.02287e-16)
(4.39163e-06 0.00306361 -1.456e-20)
(-0.00212448 0.000889005 -2.36555e-16)
(-1.88415e-05 0.00306356 2.00626e-16)
(0.00211429 0.000800084 0)
(-0.00214843 0.000840055 -5.02505e-17)
(-1.14384e-06 0.00306217 3.18886e-18)
(-0.00216048 0.000808044 1.00774e-16)
(-4.9989e-07 0.00306144 -1.6007e-18)
(-0.00214908 0.000825426 5.04598e-17)
(-0.00202571 0.000760196 0)
(7.99507e-06 0.00306352 -1.46306e-20)
(-0.00234504 0.000987666 3.00913e-16)
(1.8393e-06 0.00306514 2.04467e-16)
(0.00193418 0.000995886 -5.87768e-17)
(-0.00203745 0.000919345 1.95203e-16)
(-6.72303e-07 0.00306324 2.04612e-16)
(0.0015668 0.000614155 2.15024e-16)
(-4.00303e-06 0.00306327 2.03317e-16)
(2.3232e-06 0.00306456 3.17265e-18)
(0.00179683 0.000655525 2.2723e-16)
(0.0019285 0.000670827 -2.12538e-16)
(0.00219153 0.000872491 0)
(-0.00228086 0.000928791 0)
(-1.73665e-05 0.00306346 -1.59105e-18)
(0.00199458 0.00075518 2.79968e-16)
(-1.67217e-05 0.003062 -1.5797e-18)
(-0.00215386 0.000833175 -9.82416e-17)
(0.0019515 0.000679089 0)
(1.58224e-05 0.00306202 -4.05548e-16)
(2.57857e-06 0.00306258 -4.08064e-16)
(-0.00214193 0.000863163 0)
(-0.00215683 0.000805947 0)
(1.76523e-06 0.00306494 -4.05514e-16)
(-6.13874e-05 0.00309419 0)
(-0.0021448 0.000879401 -1.95478e-16)
(-4.12486e-05 0.00308022 -4.00509e-16)
(-0.00195734 0.000703932 0)
(0.00220513 0.000724569 5.24841e-17)
(2.39752e-07 0.00305944 -1.60738e-18)
(6.9207e-06 0.00306595 2.04308e-16)
(0.00167595 0.00104386 -7.03671e-18)
(8.13577e-07 0.00306255 -2.0479e-16)
(-0.0021695 0.000798375 1.57436e-16)
(-0.00226122 0.00105149 1.3898e-16)
(-1.86575e-05 0.00306296 2.01865e-16)
(-0.00216116 0.000807327 1.45747e-16)
(-3.33726e-06 0.00306398 2.04811e-16)
(-1.7283e-05 0.00306237 -2.02603e-16)
(-1.95499e-05 0.0030625 -2.01905e-16)
(-0.00213358 0.000867413 0)
(-0.00215799 0.000810699 -4.98678e-17)
(-2.16517e-06 0.003062 -7.98773e-19)
(1.78477e-05 0.0030631 0)
(-0.00213074 0.000863398 1.98687e-16)
(-0.00214788 0.000810753 0)
(2.77039e-06 0.00306094 -2.03399e-16)
(-1.47335e-05 0.00307254 3.16227e-18)
(0.00209547 0.000814402 -2.14733e-16)
(2.74022e-06 0.00306302 -4.10847e-16)
(-0.00231277 0.000917503 3.41572e-16)
(-1.11702e-06 0.00306277 0)
(-1.02029e-06 0.00306503 2.02758e-16)
(-5.85855e-07 0.00306312 0)
(-1.63237e-07 0.0030642 2.02818e-16)
(2.21754e-06 0.0030623 -2.02305e-16)
(0.00181685 0.00070064 1.21376e-16)
(8.22924e-07 0.00306178 2.02447e-16)
(1.39691e-06 0.00306837 -1.46563e-20)
(-4.13171e-08 0.00306273 2.048e-16)
(-2.02619e-05 0.00306312 4.04642e-16)
(-0.00215997 0.000824678 0)
(-0.00215722 0.000832374 -5.25271e-17)
(-1.75837e-05 0.00306276 0)
(-4.02094e-07 0.00306289 0)
(-2.02556e-06 0.00306168 -2.0661e-16)
(1.79302e-05 0.00306406 2.03096e-16)
(1.47997e-05 0.00306437 2.03861e-16)
(-0.00215343 0.000836534 2.57694e-16)
(1.59271e-05 0.00306266 2.03293e-16)
(-1.19339e-06 0.00306467 -2.04791e-16)
(-2.93781e-06 0.00306298 0)
(-7.99979e-07 0.00306275 -1.47051e-20)
(-0.00215787 0.000831667 1.00375e-16)
(1.77174e-05 0.00306303 0)
(1.66801e-05 0.00306218 2.03434e-16)
(-7.1623e-06 0.00306871 -2.05255e-16)
(-0.00216296 0.000807124 0)
(-3.20204e-08 0.00306282 0)
(0.00211539 0.000813586 -2.13229e-16)
(-3.86875e-07 0.00306484 1.59877e-18)
(-2.97718e-07 0.00306549 -3.98534e-19)
(-1.45895e-05 0.00306023 -7.92059e-19)
(-1.95645e-05 0.0030623 1.46006e-20)
(-1.58427e-05 0.00306126 7.92707e-19)
(-0.00214206 0.000919732 -1.24094e-16)
(-1.88813e-05 0.00306102 2.03609e-16)
(1.02001e-05 0.00306094 0)
(-1.84844e-05 0.0030614 2.02161e-16)
(-1.87054e-05 0.00306197 -2.02506e-16)
(-1.97104e-05 0.0030632 -2.03447e-16)
(-0.00260212 0.00212799 -3.08458e-16)
(-0.000496123 0.000615616 -3.84297e-16)
(1.82285e-05 0.0030635 -2.03712e-16)
(-1.83298e-06 0.00306429 -2.0307e-16)
(2.13251e-07 0.00306499 -2.03024e-16)
(1.63539e-05 0.00306211 2.03496e-16)
(-0.00216833 0.000817963 -2.02472e-16)
(-2.09775e-05 0.00306155 2.02138e-16)
(-1.75075e-06 0.00306333 -2.02689e-16)
(-1.39217e-05 0.00306917 -4.03163e-16)
(-1.62021e-06 0.0030623 -1.60328e-18)
(1.94617e-05 0.00306213 2.02727e-16)
(0.00209907 0.00080534 2.13263e-16)
(-6.55791e-06 0.00306421 -2.02727e-16)
(1.20205e-06 0.00306273 -1.45889e-20)
(0.00223582 0.000924418 -2.63004e-16)
(-6.56523e-07 0.00306262 0)
(-1.39336e-06 0.00306271 0)
(-2.08293e-05 0.00306225 -4.06249e-16)
(-0.00215735 0.000827998 1.00716e-16)
(3.87211e-07 0.00306095 -4.00489e-19)
(-2.41914e-05 0.00306327 2.12276e-19)
(0.00211415 0.000777198 1.41755e-17)
(-2.22412e-05 0.00306462 2.03074e-16)
(2.2029e-05 0.0030634 2.03046e-16)
(2.01489e-05 0.00306296 -2.02899e-16)
(5.08191e-06 0.00306258 -2.03469e-16)
(-2.36302e-05 0.00306355 1.45937e-20)
(-0.00224319 0.000804175 -2.15473e-16)
(-0.00185675 0.000725748 2.65476e-16)
(-2.00145e-06 0.00305983 -1.46738e-20)
(-1.31112e-06 0.00306413 -2.02588e-16)
(-0.00213786 0.000867464 5.11234e-17)
(1.94207e-06 0.00306116 -1.47053e-20)
(-2.17875e-05 0.00306133 8.05141e-19)
(2.18994e-05 0.00306227 -4.06039e-16)
(1.01293e-05 0.00305941 2.03832e-16)
(1.86287e-05 0.00306176 -2.03829e-16)
(1.83157e-05 0.00306243 -2.03824e-16)
(2.18634e-05 0.00306268 2.03123e-16)
(1.82795e-05 0.00306186 1.98677e-19)
(2.16995e-05 0.00306274 0)
(0.00211528 0.000799799 0)
(-1.76936e-05 0.0030629 2.04486e-16)
(-1.44387e-06 0.0030661 0)
(3.9978e-06 0.00306485 2.03735e-16)
(2.17463e-05 0.00306266 0)
(2.16559e-05 0.00306289 2.03192e-16)
(2.19316e-05 0.00306245 -9.91903e-20)
(2.24509e-06 0.00306514 1.99362e-16)
(1.9716e-05 0.00306394 0)
(-5.8196e-06 0.00306576 0)
(-1.841e-05 0.0030652 -2.04707e-16)
(-0.00215337 0.000830616 -2.4786e-21)
(1.93801e-05 0.00306254 0)
(-4.50433e-05 0.0031151 0)
(1.90344e-05 0.00306258 0)
(-0.00210097 0.000801897 1.57169e-16)
(1.49132e-06 0.00306447 -2.0284e-16)
(-1.37335e-05 0.00306931 2.04679e-16)
(1.99054e-05 0.0030643 -9.94039e-20)
(-0.00211525 0.00088022 5.56762e-17)
(-0.00214096 0.000869812 -5.08317e-17)
(1.73921e-05 0.00306382 -2.03818e-16)
(-5.29496e-06 0.00305785 0)
(-7.27019e-07 0.0030679 -2.03899e-16)
(1.76541e-05 0.00306399 1.46452e-20)
(2.18624e-05 0.00306234 -2.03658e-16)
(-1.9781e-06 0.00305552 4.05037e-16)
(0.00203131 0.000710234 -3.65593e-16)
(0.00210625 0.000812936 -4.30916e-16)
(-3.10268e-06 0.00306373 4.07247e-16)
(0.00208243 0.000822498 0)
(1.72322e-05 0.00306397 0)
(2.22239e-05 0.0030618 -3.96994e-19)
(-0.00218809 0.000865502 -1.84021e-16)
(-0.00214956 0.000877602 1.05905e-16)
(1.34979e-06 0.00306155 -1.00203e-19)
(1.73986e-05 0.00306422 2.03869e-16)
(1.84556e-06 0.00306274 -2.03128e-16)
(-0.00196578 0.00187722 1.02776e-16)
(1.64824e-05 0.00306388 7.9684e-19)
(-2.13185e-05 0.00306458 2.033e-16)
(-1.77079e-06 0.00306682 2.0407e-16)
(-0.00245366 0.00125567 -2.01498e-16)
(1.70213e-05 0.00306482 0)
(-1.24988e-06 0.0030631 4.01571e-19)
(-4.72546e-06 0.00306589 -2.03103e-16)
(-0.0021581 0.000818265 0)
(0.00216117 0.000589714 3.85783e-16)
(-0.00212327 0.000878394 5.36676e-17)
(1.62883e-05 0.00306417 -7.96971e-19)
(2.29938e-06 0.00306376 -2.03828e-16)
(-1.89715e-05 0.00306095 -2.03655e-16)
(-0.00214904 0.000862601 3.04094e-16)
(1.63294e-05 0.00306521 -2.04088e-16)
(-2.48487e-05 0.00306211 7.93014e-19)
(1.30093e-06 0.00306149 2.0059e-19)
(2.02673e-05 0.00306222 0)
(-5.44941e-07 0.00306749 0)
(2.05442e-05 0.00306201 0)
(2.15804e-06 0.00306368 0)
(-0.00215269 0.000817892 -5.05804e-17)
(-2.23677e-05 0.00306103 0)
(-1.49571e-06 0.00306294 0)
(0.00227692 0.00105738 1.57509e-16)
(1.37306e-06 0.00306382 0)
(-0.000123231 0.00319002 0)
(-5.9347e-07 0.00306731 4.08006e-16)
(1.09686e-06 0.00306153 0)
(0.002095 0.000772378 -4.81144e-17)
(0.00210857 0.000818636 0)
(0.00191367 0.000920049 1.05923e-16)
(0.0020706 0.000751483 -2.06198e-16)
(2.39263e-06 0.00306279 -4.07221e-16)
(-0.00195421 0.000843057 0)
(9.67987e-07 0.00306387 -1.9918e-19)
(-0.00213807 0.000864155 -9.91577e-17)
(2.27873e-05 0.00306239 0)
(0.00104705 0.00119694 0)
(3.86572e-07 0.00306304 -4.02029e-19)
(2.01482e-06 0.00307052 -1.26933e-17)
(0.000786604 0.00188732 -7.05262e-18)
(2.02846e-05 0.00306057 0)
(2.44857e-06 0.00306292 0)
(-0.0021476 0.000843728 0)
(-1.01117e-06 0.00306408 4.06407e-16)
(-8.95943e-07 0.00306485 0)
(0.00210405 0.000807234 3.89266e-21)
(0.000597298 0.00176663 0)
(-1.0376e-07 0.00306325 4.14441e-19)
(-2.56249e-07 0.00306471 -2.04144e-16)
(1.542e-06 0.00306253 -2.03125e-16)
(1.26225e-06 0.00306172 -4.02703e-19)
(5.64938e-07 0.00306206 0)
(1.17509e-06 0.00306606 1.47214e-20)
(0.00214951 0.000769153 0)
(-0.00215487 0.000842743 0)