/*--------------------------------*- C++ -*----------------------------------*\
  =========                 |
  \\      /  F ield         | OpenFOAM: The Open Source CFD Toolbox
   \\    /   O peration     | Website:  https://openfoam.org
    \\  /    A nd           | Version:  12
     \\/     M anipulation  |
\*---------------------------------------------------------------------------*/
FoamFile
{
    format      ascii;
    class       volScalarField;
    location    "0.19";
    object      p;
}
// * * * * * * * * * * * * * * * * * * * * * * * * * * * * * * * * * * * * * //

dimensions      [0 2 -2 0 0 0 0];

internalField   nonuniform List<scalar> 
4428
(
22.3154
22.3367
22.2986
22.3032
22.3984
22.3973
22.2994
22.3365
22.3615
22.3752
22.3709
22.2951
22.3717
22.4093
22.3154
22.3559
22.3839
22.3636
22.3644
22.3294
22.399
22.3442
22.3061
22.313
22.344
22.3565
22.3069
22.2947
22.3463
22.3573
22.335
22.3331
22.3116
22.2642
22.6353
22.3333
22.3023
22.405
22.4086
22.3186
22.3095
22.3291
22.3742
22.3516
22.3344
22.356
22.3999
22.3156
22.265
22.3146
22.371
22.3323
22.2867
22.3327
22.2676
22.3968
22.2977
22.3126
22.4013
22.2902
22.3245
22.3467
22.337
22.3258
22.326
22.3472
22.3526
22.326
22.3498
22.342
22.3366
22.3607
22.3762
22.3232
22.3105
22.636
22.3298
22.3307
22.3224
22.3964
22.384
22.3477
22.2968
22.3257
22.3505
22.3429
22.6366
22.3394
22.3185
22.383
22.3105
22.385
22.3331
22.3899
22.3186
22.3407
22.3885
22.3891
22.3293
22.2961
22.3719
22.3805
22.3118
22.2968
22.2694
22.2686
22.3237
22.3196
22.3878
22.2945
22.2856
22.313
22.3305
22.2669
22.3972
22.3342
22.4127
22.3992
22.3551
22.2914
22.2906
22.3297
22.4041
22.3597
22.6354
22.3112
22.3502
22.2902
22.3405
22.3113
22.322
22.3356
22.2668
22.337
22.3807
22.3902
22.3671
22.3269
22.3355
22.3377
22.3269
22.3321
22.3496
22.3247
22.3729
22.302
22.3664
22.4066
22.3305
22.6354
22.3039
22.3965
22.3298
22.2937
22.304
22.3864
22.396
22.3607
22.2713
22.3541
22.343
22.3696
22.3656
22.3989
22.3584
22.3196
22.3248
22.2949
22.3282
22.3452
22.3492
22.3479
22.3342
22.359
22.4037
22.3657
22.3092
22.2673
22.2685
22.3729
22.6353
22.3466
22.315
22.302
22.2966
22.3477
22.3217
22.2967
22.3947
22.3631
22.3718
22.3828
22.3493
22.3516
22.3501
22.3516
22.3525
22.3492
22.4004
22.4123
22.3901
22.3175
22.3938
22.3123
22.3492
22.3731
22.3209
22.4139
22.4087
22.3964
22.2726
22.3639
22.3876
22.3077
22.3406
22.3565
22.3574
22.6353
22.265
22.355
22.3487
22.3519
22.3416
22.3527
22.3541
22.2893
22.2661
22.3081
22.2855
22.2893
22.3102
22.4069
22.3584
22.6367
22.3773
22.359
22.3599
22.3648
22.3639
22.305
22.4001
22.3832
22.2631
22.3735
22.3004
22.4063
22.3897
22.2674
22.4002
22.4077
22.3897
22.3534
22.3627
22.3624
22.3773
22.3995
22.3614
22.6354
22.3006
22.3713
22.3722
22.3991
22.3028
22.3361
22.3673
22.2819
22.2943
22.3663
22.4079
22.3537
22.3233
22.2878
22.2997
22.4071
22.282
22.3777
22.2801
22.293
22.2936
22.3997
22.384
22.4114
22.3707
22.2977
22.3949
22.3973
22.3545
22.269
22.2741
22.2842
22.3081
22.3488
22.3796
22.3745
22.38
22.3992
22.271
22.3698
22.3786
22.4063
22.2685
22.3407
22.2955
22.3746
22.3737
22.3688
22.2687
22.6366
22.3951
22.3807
22.2857
22.3206
22.3127
22.4141
22.397
22.372
22.3786
22.3727
22.2904
22.2783
22.412
22.3454
22.2626
22.3468
22.4073
22.4024
22.3669
22.3162
22.3871
22.3771
22.3007
22.2687
22.2882
22.3214
22.386
22.3821
22.3362
22.3646
22.338
22.28
22.3761
22.381
22.2877
22.2984
22.6354
22.3696
22.331
22.2698
22.4024
22.3089
22.3416
22.2728
22.3045
22.3287
22.3846
22.2831
22.2759
22.2729
22.3406
22.3307
22.6353
22.3525
22.3549
22.2747
22.3714
22.3236
22.3915
22.2982
22.3956
22.3173
22.3015
22.326
22.337
22.3621
22.3911
22.6353
22.3835
22.3081
22.4033
22.2784
22.35
22.3476
22.4075
22.287
22.3548
22.3683
22.3998
22.3234
22.3005
22.3968
22.3936
22.2942
22.2892
22.2642
22.3163
22.2752
22.272
22.3101
22.3938
22.3948
22.2795
22.2734
22.4021
22.6353
22.3247
22.3885
22.327
22.3015
22.2966
22.3084
22.2762
22.3322
22.3137
22.4157
22.2869
22.3298
22.3231
22.309
22.2764
22.3137
22.2722
22.3149
22.2808
22.3942
22.2709
22.6366
22.3283
22.4226
22.3697
22.3885
22.3705
22.3625
22.4038
22.3249
22.3833
22.4292
22.6352
22.3224
22.3822
22.4308
22.3957
22.2625
22.2709
22.2649
22.332
22.284
22.3064
22.2703
22.452
22.2801
22.4017
22.2827
22.439
22.3889
22.4471
22.5055
22.2772
22.4194
22.4471
22.4357
22.2796
22.3985
22.4568
22.5022
22.3175
22.4455
22.3016
22.4617
22.2784
22.4568
22.3151
22.4101
22.3072
22.3378
22.499
22.4487
22.3736
22.382
22.3259
22.3143
22.4958
22.3787
22.4259
22.4941
22.4552
22.2721
22.2906
22.2758
22.4925
22.3456
22.4071
22.4584
22.3943
22.2675
22.4175
22.3713
22.4242
22.2991
22.3984
22.3102
22.4893
22.2981
22.3077
22.486
22.4649
22.3518
22.6044
22.6044
22.4209
22.6351
22.3737
22.4275
22.3954
22.3725
22.3799
22.4536
22.4406
22.3055
22.4828
22.2675
22.4714
22.2957
22.3775
22.4795
22.35
22.2672
22.3392
22.4341
22.2765
22.4438
22.3031
22.5995
22.2943
22.4422
22.4763
22.3815
22.2907
22.4779
22.4633
22.3029
22.3701
22.3663
22.4065
22.4731
22.3004
22.3381
22.2969
22.4324
22.4714
22.3105
22.3974
22.4308
22.4666
22.619
22.5071
22.3972
22.4844
22.2675
22.2636
22.2678
22.4698
22.3726
22.3833
22.3873
22.2918
22.2771
22.3924
22.5071
22.6157
22.2663
22.3043
22.3762
22.6125
22.6222
22.473
22.606
22.2945
22.4698
22.6141
22.6109
22.6174
22.3799
22.4325
22.2883
22.3652
22.2713
22.5006
22.2696
22.5039
22.4176
22.421
22.3018
22.2771
22.6028
22.2895
22.2686
22.2755
22.4666
22.4795
22.2674
22.5006
22.2672
22.4763
22.5039
22.3664
22.4909
22.3694
22.2697
22.6092
22.364
22.6108
22.3689
22.2648
22.5963
22.3911
22.6157
22.2676
22.2635
22.6125
22.3952
22.4633
22.4974
22.3934
22.3914
22.2705
22.2838
22.486
22.3892
22.4828
22.2969
22.2694
22.5898
22.4974
22.2955
22.3092
22.4909
22.4243
22.2648
22.4276
22.3907
22.3512
22.606
22.6092
22.3958
22.6141
22.2699
22.2756
22.4925
22.3043
22.6011
22.4892
22.4974
22.2931
22.2932
22.5979
22.5833
22.3653
22.3006
22.4601
22.4373
22.2725
22.5947
22.3773
22.5946
22.4877
22.5752
22.4909
22.4877
22.3893
22.4844
22.6271
22.5914
22.499
22.2895
22.2698
22.4957
22.5784
22.6011
22.5882
22.5914
22.3117
22.5768
22.6271
22.4568
22.5881
22.2871
22.5817
22.5849
22.4373
22.308
22.5849
22.2762
22.5719
22.5411
22.4682
22.5006
22.4747
22.3592
22.4812
22.6255
22.4876
22.4941
22.5022
22.4011
22.3996
22.5752
22.4844
22.4812
22.5784
22.2721
22.5039
22.4779
22.4422
22.4893
22.5703
22.2736
22.4681
22.4812
22.3915
22.5816
22.473
22.5103
22.287
22.5735
22.5054
22.2699
22.5119
22.5687
22.572
22.6206
22.5071
22.2663
22.3883
22.6076
22.4779
22.3628
22.4536
22.5087
22.5671
22.593
22.5865
22.58
22.5655
22.5736
22.5606
22.3181
22.5201
22.5622
22.5979
22.5638
22.559
22.5622
22.4406
22.5541
22.4438
22.5217
22.2844
22.5525
22.4259
22.5476
22.385
22.4747
22.5266
22.546
22.2661
22.375
22.5411
22.5282
22.5671
22.5395
22.5573
22.6287
22.3907
22.302
22.4504
22.3168
22.5346
22.5557
22.2724
22.3432
22.533
22.533
22.4747
22.4005
22.5282
22.5168
22.5525
22.3967
22.5266
22.5346
22.4746
22.2858
22.2725
22.2686
22.5217
22.4682
22.5184
22.2882
22.5201
22.5136
22.5395
22.5509
22.4503
22.5493
22.6044
22.3616
22.5152
22.5411
22.3928
22.6027
22.4192
22.5573
22.546
22.2953
22.2774
22.2925
22.3857
22.4471
22.3738
22.5995
22.2857
22.5444
22.3993
22.5476
22.5087
22.4046
22.5428
22.5703
22.3677
22.4682
22.465
22.2759
22.4039
22.593
22.5703
22.465
22.5557
22.4617
22.4455
22.3129
22.2994
22.5379
22.3968
22.5606
22.5865
22.5574
22.3445
22.2803
22.6011
22.5363
22.3984
22.4009
22.5476
22.2981
22.292
22.3996
22.606
22.5606
22.3193
22.3371
22.2723
22.4601
22.375
22.3068
22.4811
22.351
22.4439
22.58
22.2711
22.3948
22.5655
22.5395
22.2717
22.5508
22.5152
22.5995
22.6027
22.3056
22.2748
22.5314
22.3997
22.5654
22.5136
22.5671
22.6173
22.606
22.4585
22.5508
22.4617
22.3068
22.5298
22.2833
22.2821
22.606
22.5233
22.2791
22.3833
22.2921
22.3947
22.4083
22.593
22.5962
22.5687
22.5833
22.5979
22.4585
22.5249
22.3363
22.4552
22.2692
22.6092
22.5752
22.3845
22.2908
22.3948
22.5557
22.4016
22.5865
22.5898
22.5249
22.3579
22.5768
22.5898
22.632
22.5233
22.3977
22.3205
22.3665
22.6043
22.5589
22.3971
22.6303
22.3216
22.5865
22.3142
22.6076
22.3833
22.5362
22.5962
22.3861
22.4665
22.4698
22.3383
22.4406
22.58
22.5833
22.5476
22.5995
22.5962
22.3758
22.4068
22.3591
22.2994
22.4059
22.2771
22.5427
22.3783
22.3532
22.6011
22.2954
22.58
22.4098
22.2996
22.533
22.3376
22.5881
22.4552
22.452
22.5184
22.5768
22.6108
22.5881
22.3579
22.5168
22.397
22.2724
22.2684
22.5492
22.6367
22.3216
22.5962
22.3364
22.3067
22.6108
22.3141
22.5735
22.4487
22.4341
22.3758
22.5298
22.4025
22.4876
22.452
22.5298
22.398
22.5444
22.5654
22.5687
22.3303
22.5103
22.546
22.3795
22.3872
22.4021
22.5768
22.5898
22.5314
22.5816
22.6189
22.5671
22.3916
22.5638
22.5362
22.5427
22.473
22.4762
22.3153
22.5265
22.3229
22.5379
22.3469
22.266
22.593
22.3457
22.5135
22.6287
22.292
22.2723
22.4374
22.2846
22.4487
22.5606
22.2711
22.5833
22.6076
22.2736
22.3677
22.3905
22.2981
22.5557
22.5589
22.2983
22.2965
22.5346
22.5233
22.345
22.3996
22.3742
22.2821
22.2845
22.2919
22.2992
22.3065
22.3139
22.3212
22.3285
22.4006
22.3938
22.5541
22.2917
22.5054
22.5931
22.6222
22.6125
22.5541
22.2711
22.4113
22.3497
22.6141
22.384
22.5946
22.403
22.3241
22.3969
22.4
22.3285
22.3212
22.3139
22.3065
22.2992
22.2919
22.3684
22.3604
22.2709
22.5054
22.3884
22.4503
22.3611
22.6255
22.4358
22.52
22.4097
22.3376
22.3684
22.3847
22.5281
22.3774
22.5914
22.5638
22.4007
22.5071
22.2845
22.3999
22.4041
22.5476
22.4027
22.4002
22.4008
22.4023
22.546
22.5492
22.5768
22.3999
22.361
22.4032
22.6206
22.4008
22.3241
22.3927
22.2674
22.3536
22.2663
22.4024
22.5525
22.3383
22.4795
22.4827
22.2736
22.619
22.4011
22.5784
22.4043
22.3894
22.3228
22.361
22.5135
22.3536
22.4957
22.402
22.3315
22.5363
22.276
22.265
22.2748
22.3567
22.5168
22.4423
22.4029
22.3314
22.4011
22.5216
22.4009
22.2735
22.3917
22.3619
22.5411
22.5719
22.353
22.3947
22.5752
22.2711
22.5703
22.4341
22.5541
22.3792
22.6238
22.3383
22.405
22.4957
22.3803
22.377
22.4015
22.5087
22.5379
22.5541
22.5654
22.632
22.5687
22.3916
22.4
22.5866
22.3043
22.6076
22.3261
22.3393
22.2723
22.2821
22.4031
22.3988
22.5962
22.5898
22.5833
22.5152
22.3657
22.5346
22.606
22.2851
22.5589
22.5622
22.3955
22.5638
22.2797
22.3408
22.6092
22.5314
22.3383
22.5249
22.3061
22.5184
22.4941
22.3531
22.4071
22.3621
22.3751
22.5346
22.5379
22.3154
22.6157
22.2833
22.4015
22.439
22.5525
22.5557
22.4009
22.2821
22.3474
22.4009
22.3228
22.3116
22.5006
22.2747
22.4423
22.6222
22.4009
22.3395
22.2661
22.6011
22.3073
22.3635
22.2809
22.5281
22.546
22.5492
22.5573
22.6206
22.6238
22.3217
22.2809
22.3592
22.5119
22.4039
22.4973
22.3884
22.2905
22.3561
22.2786
22.382
22.3791
22.486
22.4892
22.3494
22.4068
22.5281
22.5314
22.3953
22.3846
22.3139
22.3978
22.6303
22.3225
22.3356
22.5395
22.6027
22.3442
22.5427
22.3988
22.3359
22.4035
22.2748
22.2689
22.3708
22.6076
22.5038
22.6381
22.4042
22.34
22.342
22.3407
22.3929
22.3852
22.5103
22.3762
22.331
22.3178
22.3091
22.265
22.3898
22.2849
22.3903
22.3469
22.3072
22.5216
22.3753
22.2735
22.533
22.5362
22.6125
22.3815
22.5508
22.5914
22.5946
22.3553
22.2735
22.3438
22.3456
22.2797
22.4031
22.3858
22.3882
22.2747
22.619
22.3858
22.2797
22.4144
22.5476
22.6389
22.5801
22.3999
22.3388
22.2784
22.4099
22.5119
22.439
22.5265
22.5298
22.2809
22.5216
22.5249
22.3506
22.344
22.4027
22.2698
22.4601
22.3137
22.3222
22.3354
22.4357
22.5914
22.5947
22.3359
22.2905
22.5622
22.3204
22.5849
22.3351
22.3987
22.3647
22.3308
22.3175
22.309
22.3745
22.276
22.4001
22.4162
22.3179
22.3938
22.3105
22.4022
22.3606
22.52
22.4309
22.5233
22.6157
22.5444
22.2857
22.2931
22.3004
22.3077
22.3151
22.3224
22.3297
22.4681
22.5428
22.4325
22.3846
22.3396
22.5022
22.3006
22.3696
22.3288
22.276
22.4125
22.5752
22.5784
22.3622
22.3926
22.6206
22.4941
22.3252
22.3253
22.6389
22.5152
22.3573
22.3548
22.5638
22.4076
22.638
22.5168
22.3437
22.3456
22.3511
22.3551
22.4006
22.308
22.3486
22.3906
22.414
22.5152
22.5184
22.3204
22.3352
22.3671
22.3972
22.4082
22.5687
22.5719
22.281
22.5444
22.4142
22.38
22.4084
22.6027
22.3597
22.2674
22.5362
22.4892
22.3828
22.3948
22.2802
22.6238
22.5379
22.593
22.2932
22.3482
22.5768
22.5703
22.5638
22.5573
22.5508
22.5443
22.5379
22.3518
22.5314
22.5249
22.5184
22.4292
22.3688
22.3721
22.3815
22.3543
22.5882
22.5849
22.2833
22.6076
22.3738
22.3426
22.3956
22.3808
22.2866
22.302
22.3068
22.3154
22.382
22.3241
22.3285
22.337
22.3166
22.3053
22.5946
22.3271
22.5881
22.5914
22.3403
22.5979
22.5816
22.5849
22.2991
22.287
22.2943
22.3016
22.309
22.3163
22.3237
22.331
22.4064
22.5622
22.5654
22.2763
22.3636
22.3289
22.533
22.3278
22.2941
22.2906
22.2979
22.3052
22.3126
22.3199
22.3273
22.3346
22.5265
22.52
22.5298
22.5233
22.4013
22.2894
22.2967
22.3041
22.3114
22.3188
22.3261
22.3334
22.3408
22.4925
22.4957
22.5168
22.386
22.3462
22.3846
22.4908
22.4876
22.3487
22.3481
22.3049
22.329
22.2929
22.2881
22.3835
22.6271
22.4002
22.2833
22.2709
22.2812
22.296
22.3667
22.405
22.3573
22.3984
22.324
22.2875
22.2944
22.303
22.3077
22.3162
22.3248
22.3295
22.338
22.3427
22.345
22.6173
22.6206
22.3558
22.638
22.486
22.5119
22.5849
22.5071
22.2778
22.5557
22.5589
22.4158
22.3644
22.3426
22.3444
22.3595
22.3254
22.2684
22.3705
22.2833
22.2906
22.2979
22.3053
22.3126
22.32
22.3273
22.3346
22.342
22.3494
22.3371
22.6238
22.3543
22.3592
22.3691
22.3904
22.4925
22.411
22.3787
22.5314
22.5736
22.3789
22.2882
22.2955
22.3028
22.3102
22.3175
22.3249
22.3322
22.3395
22.6255
22.3665
22.4844
22.4325
22.2863
22.3019
22.3066
22.3152
22.3237
22.3285
22.3991
22.3368
22.3416
22.3518
22.3167
22.397
22.5314
22.3275
22.6389
22.3455
22.2846
22.4157
22.3634
22.3714
22.3318
22.6238
22.3186
22.31
22.3582
22.3341
22.3209
22.3124
22.2968
22.4078
22.5492
22.5525
22.6255
22.368
22.3395
22.2906
22.298
22.3053
22.3126
22.32
22.3273
22.3347
22.3278
22.2942
22.2893
22.5785
22.5817
22.3871
22.4045
22.4011
22.2894
22.2967
22.3041
22.3114
22.3188
22.3261
22.3334
22.3408
22.3506
22.3738
22.4129
22.4811
22.4014
22.3768
22.2789
22.4013
22.4013
22.6336
22.2821
22.3998
22.3704
22.3718
22.2686
22.4681
22.5427
22.546
22.3555
22.2759
22.6206
22.3604
22.4795
22.3298
22.3167
22.308
22.2879
22.3647
22.4827
22.3717
22.5006
22.5038
22.3326
22.6389
22.3049
22.3289
22.3025
22.2929
22.2881
22.3487
22.348
22.3462
22.3575
22.2772
22.3571
22.2972
22.2957
22.5249
22.2836
22.6141
22.3727
22.6391
22.3774
22.3729
22.6389
22.5006
22.6222
22.6222
22.5249
22.2784
22.414
22.6189
22.2814
22.2723
22.5119
22.426
22.5362
22.5395
22.4124
22.6222
22.6206
22.3587
22.2858
22.3331
22.3824
22.6222
22.3199
22.3113
22.499
22.4074
22.6173
22.3061
22.3277
22.3671
22.2941
22.3634
22.3203
22.3444
22.3371
22.3301
22.3492
22.3746
22.3425
22.3706
22.3587
22.2908
22.3598
22.3779
22.3084
22.354
22.3156
22.3229
22.3013
22.276
22.2834
22.2869
22.3129
22.3277
22.3474
22.3524
22.2798
22.3351
22.3055
22.2982
22.6173
22.41
22.2818
22.4925
22.6336
22.6271
22.3615
22.283
22.4941
22.3413
22.3432
22.6109
22.4211
22.4746
22.4779
22.276
22.3776
22.4357
22.6157
22.4893
22.4244
22.5298
22.533
22.5752
22.572
22.5671
22.4154
22.619
22.2872
22.2896
22.2919
22.2943
22.3028
22.3051
22.3075
22.316
22.3246
22.3269
22.4176
22.3293
22.3378
22.3401
22.3425
22.3448
22.5573
22.4779
22.6254
22.4226
22.2966
22.3098
22.6206
22.3533
22.3184
22.3316
22.6391
22.3557
22.3472
22.3475
22.3712
22.358
22.473
22.3204
22.3803
22.4094
22.4828
22.5184
22.4138
22.4276
22.3642
22.473
22.5022
22.3811
22.6255
22.3191
22.421
22.2663
22.3731
22.3469
22.3524
22.3765
22.4138
22.3665
22.3659
22.3463
22.5719
22.3928
22.3659
22.3179
22.3031
22.3327
22.4178
22.3302
22.3037
22.2917
22.2893
22.3499
22.345
22.3563
22.3468
22.2956
22.3567
22.5233
22.5265
22.5184
22.4989
22.5022
22.2825
22.3401
22.3419
22.3689
22.3639
22.3585
22.2833
22.2989
22.3252
22.3121
22.3207
22.3995
22.3339
22.3217
22.3495
22.3253
22.3265
22.3265
22.2883
22.3712
22.3604
22.4746
22.6125
22.4666
22.4118
22.2808
22.2833
22.2858
22.2882
22.2906
22.2931
22.2955
22.2978
22.3003
22.3028
22.3052
22.3077
22.3102
22.3126
22.3151
22.3175
22.32
22.3224
22.3248
22.3274
22.3298
22.3321
22.3345
22.337
22.3395
22.3419
22.3444
22.3469
22.3494
22.4762
22.3518
22.5492
22.3543
22.4908
22.4941
22.3567
22.3592
22.4209
22.4601
22.3616
22.6287
22.5671
22.6303
22.2734
22.364
22.2748
22.5152
22.4153
22.6141
22.4227
22.4536
22.5168
22.52
22.4226
22.4292
22.6319
22.4125
22.3665
22.4097
22.6108
22.2772
22.5736
22.619
22.3736
22.3733
22.4811
22.3477
22.3689
22.3482
22.6076
22.4106
22.5687
22.5655
22.4175
22.606
22.2785
22.4259
22.3996
22.4112
22.4156
22.4137
22.3701
22.4276
22.5509
22.6092
22.6043
22.6173
22.4665
22.4225
22.2796
22.4714
22.3714
22.4195
22.4275
22.6141
22.4325
22.4242
22.4276
22.4292
22.6092
22.5946
22.2756
22.5881
22.6043
22.4309
22.3191
22.5816
22.3339
22.6108
22.6027
22.6027
22.3006
22.4422
22.4208
22.4191
22.4455
22.546
22.6027
22.4243
22.4487
22.4373
22.5995
22.6011
22.4439
22.4406
22.3339
22.5379
22.4357
22.4876
22.5979
22.3018
22.439
22.5298
22.4308
22.5962
22.4471
22.4487
22.5233
22.4585
22.4552
22.5168
22.6027
22.5946
22.4569
22.4374
22.452
22.4536
22.6011
22.5946
22.593
22.4568
22.4585
22.4698
22.4374
22.4762
22.4698
22.593
22.4779
22.5914
22.5898
22.4827
22.5881
22.4892
22.486
22.4973
22.4973
22.5865
22.4892
22.5881
22.4957
22.4941
22.5865
22.5898
22.5849
22.5833
22.5071
22.5865
22.5071
22.5849
22.5103
22.5833
22.5054
22.4989
22.5816
22.5023
22.58
22.5135
22.5184
22.5816
22.5119
22.5071
22.5055
22.5135
22.58
22.5087
22.5216
22.5784
22.5768
22.5784
22.52
22.5249
22.5768
22.5152
22.5168
22.5152
22.5281
22.5217
22.5168
22.5752
22.5314
22.5281
22.5346
22.5735
22.5233
22.5379
22.5752
22.5265
22.5346
22.5411
22.5719
22.5443
22.5735
22.5298
22.533
22.5703
22.5476
22.5703
22.5508
22.5362
22.5395
22.5719
22.5525
22.5525
22.5508
22.5541
22.5687
22.5671
22.5573
22.5444
22.5606
22.5427
22.546
22.5638
22.5509
22.5525
22.5622
22.5622
22.5654
22.5606
22.5492
22.5525
22.5687
22.5541
22.5622
22.5589
22.5557
22.5719
22.5719
22.5606
22.5622
22.5752
22.5703
22.5638
22.5768
22.572
22.5704
22.5735
22.5784
22.58
22.5865
22.5914
22.5898
22.5898
22.5849
22.5882
22.5931
22.5947
22.5866
22.4844
22.4828
22.4098
22.4406
22.4714
22.4925
22.465
22.4698
22.4633
22.525
22.525
22.4682
22.4925
22.5087
22.499
22.5704
22.5379
22.5736
22.6093
22.5833
22.5833
22.5379
22.5639
22.4796
22.606
22.4796
22.5509
22.4601
22.5185
22.5639
22.5541
22.5444
22.4666
22.4504
22.4341
22.619
22.5444
22.5314
22.4504
22.4243
22.5963
22.5574
22.5768
22.5963
22.4731
22.4877
22.5087
22.5314
22.5185
22.486
22.4174
22.4633
22.4779
22.4812
22.4941
22.4747
22.4617
22.4763
22.4974
22.4893
22.4958
22.4909
22.5979
22.5962
22.5898
22.5914
22.5995
22.5865
22.5979
22.5962
22.5914
22.5946
22.5881
22.5833
22.593
22.5849
22.5914
22.5898
22.5849
22.58
22.5898
22.5881
22.5768
22.5816
22.5865
22.5849
22.5784
22.5784
22.5833
22.58
22.5816
22.5735
22.5784
22.5752
22.58
22.5703
22.5784
22.5671
22.5719
22.5735
22.5768
22.5687
22.5687
22.5752
22.5735
22.5622
22.5719
22.5687
22.5638
22.5703
22.5654
22.5671
22.5606
22.5687
22.5573
22.5622
22.5671
22.5589
22.5589
22.5557
22.5654
22.5589
22.5606
22.5638
22.5622
22.5541
22.5606
22.5557
22.5589
22.5508
22.5492
22.5573
22.5476
22.5525
22.5541
22.5492
22.5557
22.5492
22.5541
22.5492
22.5525
22.5427
22.533
22.5444
22.5508
22.546
22.5476
22.5492
22.5411
22.593
22.5395
22.5476
22.5427
22.5427
22.546
22.5362
22.593
22.5379
22.5444
22.5411
22.5395
22.5427
22.5346
22.5314
22.5411
22.5362
22.5395
22.5362
22.5281
22.5298
22.533
22.5346
22.5379
22.5362
22.5298
22.5346
22.5249
22.533
22.5265
22.5298
22.5314
22.5233
22.5265
22.5216
22.5281
22.5298
22.5184
22.52
22.5233
22.5233
22.5281
22.5265
22.52
22.5152
22.5152
22.5217
22.5249
22.5168
22.5119
22.5233
22.5168
22.5217
22.52
22.4974
22.5152
22.5135
22.5135
22.5184
22.5039
22.5168
22.5087
22.5135
22.5103
22.5006
22.5152
22.5054
22.5006
22.5135
22.5022
22.4941
22.5071
22.5055
22.5914
22.5119
22.5038
22.5038
22.5054
22.5103
22.5055
22.499
22.5022
22.4649
22.5087
22.5022
22.5071
22.5038
22.4908
22.4989
22.4909
22.5054
22.4958
22.5006
22.4876
22.499
22.499
22.4844
22.4957
22.5038
22.4876
22.4941
22.4973
22.4973
22.5022
22.4925
22.4925
22.5038
22.5006
22.499
22.4973
22.4957
22.4941
22.4893
22.4892
22.4941
22.486
22.486
22.4812
22.4908
22.4714
22.4908
22.4925
22.4925
22.4828
22.4892
22.4827
22.4876
22.4682
22.5946
22.4747
22.4908
22.4746
22.4958
22.4844
22.4811
22.4892
22.4633
22.4844
22.4876
22.4779
22.4795
22.486
22.4811
22.4795
22.4827
22.4844
22.4762
22.473
22.4731
22.4649
22.4827
22.4876
22.4779
22.4763
22.4811
22.4941
22.4779
22.5995
22.5979
22.4763
22.4698
22.4698
22.486
22.4795
22.4746
22.4844
22.5979
22.5995
22.606
22.6076
22.4666
22.4779
22.4714
22.473
22.4552
22.4665
22.4649
22.4681
22.4042
22.4585
22.4617
22.4714
22.4762
22.4746
22.4681
22.5979
22.473
22.4633
22.5995
22.4617
22.4714
22.6028
22.4633
22.4665
22.5962
22.4698
22.4649
22.4649
22.46
22.4681
22.452
22.5979
22.4665
22.4358
22.4601
22.4665
22.4584
22.4568
22.6011
22.6044
22.6012
22.4649
22.4617
22.4714
22.4568
22.4455
22.4536
22.4698
22.4633
22.46
22.4681
22.4568
22.4584
22.4487
22.4617
22.486
22.4535
22.4649
22.5995
22.4487
22.4552
22.4293
22.46
22.4568
22.4633
22.4552
22.4438
22.46
22.4101
22.4454
22.4617
22.4584
22.3093
22.4552
22.4552
22.4504
22.4422
22.3004
22.4568
22.4535
22.4503
22.4471
22.4519
22.4844
22.4147
22.4552
22.4471
22.4438
22.6011
22.4535
22.6174
22.6158
22.6093
22.6076
22.6027
22.4584
22.4471
22.4503
22.6044
22.6044
22.4471
22.4519
22.4439
22.439
22.4358
22.4487
22.4535
22.4192
22.4503
22.4454
22.5039
22.5006
22.4454
22.5671
22.5638
22.4471
22.4406
22.4519
22.6027
22.4107
22.4325
22.4438
22.4487
22.6238
22.4422
22.4519
22.4422
22.4422
22.4406
22.4471
22.4487
22.4503
22.2944
22.6125
22.4373
22.6239
22.3555
22.6092
22.4454
22.3738
22.6092
22.4731
22.6141
22.3585
22.4389
22.606
22.4406
22.4374
22.3659
22.4024
22.4389
22.4259
22.4341
22.5023
22.4438
22.4439
22.5654
22.6173
22.4341
22.4633
22.4162
22.4454
22.6109
22.6141
22.4422
22.4325
22.6043
22.606
22.4029
22.3939
22.4341
22.4309
22.4357
22.4406
22.439
22.3733
22.486
22.426
22.4827
22.4779
22.6076
22.4341
22.4374
22.2859
22.2883
22.2906
22.293
22.3015
22.3038
22.3062
22.3147
22.2953
22.3233
22.3256
22.328
22.4455
22.6271
22.3085
22.3365
22.3388
22.3412
22.3171
22.3435
22.606
22.3303
22.3459
22.4357
22.4714
22.352
22.4308
22.3544
22.3413
22.3431
22.6125
22.3567
22.6076
22.4325
22.439
22.4892
22.4341
22.5623
22.559
22.3265
22.4163
22.2976
22.4276
22.3109
22.3194
22.4193
22.3327
22.3482
22.3629
22.499
22.4374
22.3774
22.4292
22.4325
22.6238
22.4003
22.4357
22.3265
22.4617
22.4261
22.3653
22.6092
22.3591
22.6222
22.4698
22.4292
22.6108
22.423
22.4795
22.5071
22.6076
22.4277
22.6108
22.4844
22.4309
22.6108
22.6222
22.4093
22.3628
22.4293
22.6125
22.6092
22.4277
22.4309
22.3981
22.2871
22.3676
22.4211
22.46
22.4245
22.426
22.5606
22.5573
22.6125
22.4154
22.4261
22.4244
22.5054
22.4762
22.4795
22.6141
22.4325
22.4277
22.4214
22.3699
22.3192
22.5801
22.5606
22.6254
22.6108
22.3456
22.4293
22.3763
22.2782
22.3598
22.3802
22.3465
22.4166
22.3167
22.4226
22.3388
22.3241
22.4309
22.2821
22.2845
22.287
22.2894
22.2918
22.2942
22.2966
22.299
22.3014
22.3039
22.3064
22.3088
22.3114
22.3139
22.3163
22.3188
22.3212
22.3237
22.3261
22.3286
22.331
22.3333
22.3357
22.4168
22.3382
22.3407
22.3431
22.3456
22.4245
22.3481
22.4584
22.3506
22.353
22.3723
22.416
22.3555
22.6157
22.4293
22.3579
22.473
22.5525
22.5558
22.412
22.3604
22.4779
22.5087
22.3499
22.4169
22.6255
22.3628
22.6141
22.4227
22.2795
22.6125
22.6206
22.423
22.4568
22.4261
22.4214
22.4167
22.3653
22.4183
22.473
22.4195
22.4698
22.3122
22.6335
22.4214
22.4199
22.411
22.5541
22.5508
22.3677
22.4552
22.4181
22.3965
22.4245
22.4132
22.4229
22.4097
22.6125
22.3937
22.5589
22.5119
22.6157
22.6322
22.4183
22.4167
22.4179
22.619
22.3488
22.3701
22.4199
22.5071
22.4779
22.4183
22.4125
22.4535
22.4122
22.5493
22.546
22.5817
22.4153
22.4198
22.4138
22.4183
22.3915
22.4056
22.4374
22.3787
22.4357
22.3808
22.5752
22.5654
22.3693
22.5557
22.5103
22.5006
22.3726
22.4198
22.4135
22.3103
22.3778
22.2807
22.3391
22.2733
22.3409
22.3339
22.3269
22.3597
22.2843
22.3669
22.2914
22.3197
22.2984
22.381
22.374
22.3512
22.288
22.3633
22.3026
22.3481
22.3318
22.3245
22.3055
22.3562
22.3529
22.2772
22.3706
22.3126
22.3099
22.3463
22.2953
22.3172
22.5476
22.5443
22.3798
22.4519
22.6303
22.4503
22.5833
22.5135
22.4212
22.4714
22.606
22.4108
22.6238
22.5541
22.6238
22.5136
22.5104
22.3761
22.4941
22.3837
22.5135
22.6287
22.6011
22.4149
22.6222
22.5087
22.4357
22.409
22.6173
22.3917
22.5428
22.5395
22.2844
22.3
22.3132
22.3217
22.335
22.3506
22.4487
22.6141
22.4028
22.4214
22.3614
22.2727
22.3959
22.6157
22.375
22.4471
22.4111
22.2837
22.4197
22.3129
22.3345
22.4714
22.3607
22.632
22.5411
22.5379
22.6271
22.6189
22.6287
22.3804
22.3107
22.3324
22.2827
22.4454
22.5525
22.2829
22.5103
22.3548
22.3785
22.3883
22.6287
22.4438
22.3981
22.5152
22.3789
22.4422
22.3881
22.5363
22.5331
22.3738
22.5103
22.4042
22.6303
22.4406
22.4665
22.619
22.2772
22.4228
22.2783
22.2796
22.2857
22.2904
22.3012
22.3059
22.3145
22.2902
22.323
22.3277
22.3363
22.341
22.3456
22.3518
22.4406
22.3811
22.3565
22.2974
22.3192
22.4406
22.6173
22.4119
22.6321
22.5346
22.5314
22.4244
22.3775
22.3627
22.3962
22.3359
22.3513
22.3141
22.2853
22.3623
22.4649
22.3673
22.4341
22.3884
22.4118
22.4325
22.3597
22.5477
22.632
22.6044
22.287
22.2942
22.3015
22.309
22.3162
22.3236
22.3309
22.3381
22.5103
22.5833
22.3455
22.6255
22.4309
22.3506
22.4121
22.3555
22.3654
22.6319
22.6222
22.4373
22.4633
22.3628
22.5216
22.5266
22.5298
22.426
22.3746
22.5817
22.6206
22.4276
22.4341
22.606
22.4229
22.2842
22.313
22.3348
22.3503
22.6303
22.6336
22.278
22.2834
22.3342
22.3612
22.3215
22.5735
22.4616
22.3755
22.5671
22.3701
22.5573
22.5281
22.5249
22.3681
22.5087
22.6287
22.5022
22.4196
22.6043
22.5411
22.6303
22.3114
22.403
22.6336
22.546
22.46
22.6255
22.3357
22.3141
22.2851
22.3511
22.5395
22.3506
22.3621
22.5849
22.5816
22.5233
22.5201
22.4584
22.5233
22.5201
22.3116
22.3333
22.2721
22.3117
22.3335
22.403
22.6287
22.4212
22.512
22.5995
22.4245
22.6157
22.5119
22.4568
22.3744
22.6303
22.4261
22.5216
22.5184
22.2805
22.3799
22.3759
22.3203
22.5412
22.3752
22.4552
22.426
22.3589
22.386
22.3775
22.3986
22.3082
22.3892
22.3169
22.33
22.2881
22.3386
22.3433
22.3542
22.4293
22.3651
22.5865
22.5168
22.6271
22.4535
22.5281
22.5249
22.3972
22.3836
22.4277
22.6238
22.4228
22.4519
22.5104
22.632
22.4503
22.4036
22.3997
22.559
22.4136
22.5395
22.6271
22.3599
22.4487
22.6255
22.3481
22.6238
22.3868
22.4277
22.4325
22.3806
22.5882
22.6206
22.4471
22.3821
22.4022
22.5266
22.5298
22.3093
22.3311
22.4454
22.5411
22.396
22.3808
22.4309
22.5168
22.4438
22.3929
22.4422
22.5606
22.6255
22.3179
22.3576
22.5347
22.3069
22.3156
22.2892
22.3287
22.2868
22.4293
22.3444
22.3397
22.3373
22.342
22.3993
22.3529
22.3553
22.439
22.6011
22.3638
22.3661
22.3824
22.3923
22.3154
22.3372
22.3527
22.2866
22.3636
22.439
22.6271
22.6125
22.6287
22.3943
22.439
22.3965
22.5898
22.3902
22.3918
22.3768
22.6303
22.5346
22.5314
22.388
22.3468
22.3493
22.3981
22.5184
22.533
22.3895
22.4044
22.2686
22.3193
22.4293
22.3783
22.3797
22.391
22.5914
22.3907
22.5363
22.533
22.6304
22.2696
22.3848
22.383
22.3872
22.3844
22.52
22.5282
22.6141
22.4341
22.3848
22.5087
22.593
22.4325
22.6222
22.5411
22.5379
22.5265
22.4053
22.5444
22.377
22.4244
22.4045
22.3958
22.3573
22.4341
22.3794
22.5946
22.5428
22.5395
22.2719
22.6157
22.5217
22.3978
22.3888
22.5217
22.3896
22.3832
22.3512
22.512
22.3876
22.4309
22.3895
22.3869
22.632
22.4357
22.5963
22.418
22.5476
22.5444
22.52
22.3896
22.3855
22.3951
22.3878
22.4036
22.3817
22.3967
22.5979
22.3908
22.5152
22.5493
22.546
22.4747
22.439
22.4003
22.5265
22.5136
22.3983
22.4374
22.415
22.3838
22.3911
22.5995
22.512
22.5508
22.3937
22.4406
22.4149
22.3897
22.3877
22.6189
22.3891
22.6173
22.4422
22.3622
22.5103
22.3046
22.3023
22.6011
22.5119
22.3984
22.5573
22.6174
22.5282
22.3814
22.5687
22.6303
22.5427
22.3961
22.4438
22.6027
22.559
22.5557
22.3845
22.4909
22.4455
22.5703
22.3954
22.349
22.6271
22.3888
22.4037
22.6255
22.5606
22.4471
22.6044
22.2795
22.3467
22.533
22.4487
22.3452
22.3518
22.3543
22.3861
22.5671
22.6287
22.6271
22.6271
22.4503
22.5995
22.452
22.6157
22.4166
22.6287
22.5687
22.5655
22.5347
22.4536
22.4519
22.2795
22.6076
22.4617
22.5703
22.6206
22.4552
22.4046
22.3849
22.5785
22.3922
22.3036
22.3931
22.4568
22.5768
22.3841
22.2711
22.3853
22.4584
22.5395
22.2765
22.3647
22.5752
22.5784
22.4601
22.3863
22.3914
22.4617
22.3993
22.2733
22.58
22.3864
22.632
22.3696
22.6287
22.2744
22.4633
22.5412
22.6303
22.632
22.3944
22.4649
22.2767
22.58
22.3901
22.6157
22.4051
22.4665
22.2719
22.3989
22.3567
22.4181
22.4682
22.392
22.353
22.546
22.348
22.2697
22.4698
22.6255
22.6158
22.4714
22.3902
22.4746
22.4213
22.3871
22.3925
22.2713
22.4197
22.3991
22.5477
22.4763
22.3984
22.4795
22.632
22.377
22.6222
22.2746
22.4229
22.3925
22.3977
22.2686
22.5525
22.3616
22.4909
22.4811
22.5541
22.4957
22.2698
22.4828
22.3561
22.4245
22.3382
22.4844
22.5557
22.4261
22.2796
22.4277
22.3795
22.486
22.6174
22.2782
22.6336
22.4876
22.4015
22.4293
22.275
22.2808
22.3136
22.2746
22.2793
22.3721
22.5574
22.6109
22.4925
22.5071
22.4004
22.5087
22.274
22.4309
22.6206
22.5622
22.4325
22.2844
22.4341
22.4974
22.5638
22.364
22.3826
22.6271
22.3457
22.499
22.5654
22.5006
22.4357
22.5022
22.5055
22.5979
22.2742
22.5038
22.4374
22.5671
22.439
22.2732
22.3445
22.2649
22.2606
22.3988
22.6303
22.3579
22.4406
22.4536
22.3689
22.4747
22.4633
22.3929
22.5719
22.3869
22.4422
22.6125
22.2606
22.2648
22.5735
22.5087
22.4438
22.2606
22.2647
22.2606
22.265
22.4763
22.5752
22.2607
22.2648
22.277
22.4455
22.4471
22.2807
22.4487
22.398
22.322
22.5768
22.3321
22.4503
22.2831
22.2703
22.4519
22.3714
22.3674
22.3345
22.4536
22.5816
22.4909
22.6141
22.4552
22.6239
22.6173
22.3591
22.2689
22.5833
22.4568
22.6141
22.3861
22.2758
22.5849
22.4584
22.3063
22.46
22.3952
22.3603
22.5865
22.4617
22.3885
22.5881
22.4633
22.3763
22.6239
22.4649
22.3787
22.5898
22.2674
22.4665
22.4925
22.4681
22.5914
22.4698
22.3836
22.593
22.3001
22.4714
22.3057
22.3635
22.2972
22.5946
22.2974
22.4763
22.6271
22.5962
22.4795
22.2838
22.2706
22.6109