/*--------------------------------*- C++ -*----------------------------------*\
  =========                 |
  \\      /  F ield         | OpenFOAM: The Open Source CFD Toolbox
   \\    /   O peration     | Website:  https://openfoam.org
    \\  /    A nd           | Version:  12
     \\/     M anipulation  |
\*---------------------------------------------------------------------------*/
FoamFile
{
    format      ascii;
    class       volVectorField;
    location    "0.19";
    object      U;
}
// * * * * * * * * * * * * * * * * * * * * * * * * * * * * * * * * * * * * * //

dimensions      [0 1 -1 0 0 0 0];

internalField   nonuniform List<vector> 
4428
(
(0.00144548 0.000548584 1.01428e-16)
(-0.00146365 0.000604182 -9.03821e-17)
(-0.00132165 0.000604979 0)
(-0.00137687 0.000581071 0)
(0.00132428 0.00109802 8.16386e-17)
(0.00137192 0.0011268 3.22318e-21)
(-0.00131602 0.000754854 0)
(-0.00147687 0.000526541 1.46409e-16)
(0.00141884 0.000579634 -2.49063e-16)
(0.00146348 0.000425375 9.95368e-17)
(-0.001342 0.000467817 -1.73329e-16)
(0.00135571 0.000570732 -1.76861e-16)
(-0.00151743 0.000321639 -2.03657e-16)
(-0.000472914 0.00169855 -9.58147e-17)
(0.00142335 0.000553222 0)
(0.00129873 0.000477771 0)
(0.0014691 0.000528153 0)
(-0.0013428 0.000466509 0)
(-0.00152639 0.000320189 0)
(0.00143837 0.00055458 0)
(0.000511593 0.000420079 -4.48034e-16)
(-0.00145728 0.000558837 -1.777e-16)
(-0.0013756 0.000585071 0)
(-0.00149734 0.000512341 0)
(-0.00145052 0.000553642 2.26615e-17)
(-0.0013758 0.00051009 0)
(-0.00139085 0.000736293 1.03355e-16)
(0.00139768 0.000453745 2.07802e-16)
(0.00130472 0.000642702 0)
(-0.0015355 0.000353441 0)
(0.00142057 0.000348721 0)
(-0.00147401 0.000556749 -1.84202e-16)
(0.00144462 0.000459384 -9.00187e-17)
(-0.00149758 0.000727046 -2.77419e-16)
(-1.20777e-05 0.00196755 4.69767e-17)
(-0.00147 0.000573378 1.9986e-16)
(-0.00144125 0.000725679 -4.42794e-21)
(0.00133856 0.00180408 1.27041e-17)
(-0.00021493 0.00170528 -2.62231e-17)
(-0.00137961 0.000605329 0)
(0.00145098 0.000522511 0)
(0.00131838 0.000423842 0)
(0.001382 0.000470812 9.2431e-17)
(-0.00150264 0.000482146 1.66056e-16)
(0.00144257 0.00045708 0)
(0.00117875 0.000441257 0)
(0.0013816 0.00132258 -9.97826e-17)
(-0.00137538 0.000667713 2.03142e-16)
(-0.00139687 0.000587346 2.24457e-16)
(-0.00143941 0.000633621 0)
(0.00144274 0.000604426 0)
(0.00129214 0.000619227 1.88121e-16)
(0.00147267 0.000421881 -9.13176e-17)
(0.00131024 0.000636316 0)
(0.00133897 0.000567342 -1.39783e-17)
(0.000868064 0.000414133 0)
(0.0012842 0.000611194 -9.29919e-17)
(-0.00140929 0.000460924 0)
(0.00120363 0.00129066 1.82958e-16)
(0.00141216 0.000484651 -1.82009e-16)
(0.00147675 0.000567982 1.67095e-16)
(-0.00147521 0.000469482 0)
(0.00128613 0.000511865 2.7995e-16)
(-0.00147068 0.000554169 9.26973e-17)
(-0.00146676 0.00057454 0)
(0.00135196 0.000594167 0)
(-0.00150023 0.000490475 1.73156e-16)
(-0.0013881 0.000592211 -1.85819e-16)
(0.00139693 0.000497874 -1.82184e-16)
(-0.00142243 0.000619203 -3.61905e-16)
(-0.00150607 0.000469842 -9.16123e-17)
(0.00141751 0.000645554 2.12651e-16)
(0.00153555 0.000671358 5.80498e-17)
(-0.00136499 0.00056834 4.46949e-17)
(0.00143933 0.000503691 1.96647e-16)
(-2.54339e-05 0.00194583 -1.83293e-16)
(0.00147162 0.000674188 0)
(0.00151456 0.000590804 0)
(-0.00132972 0.000760825 -1.18143e-16)
(0.00103403 0.000489812 -4.35172e-21)
(0.00129186 0.000663007 -1.97537e-16)
(-0.00149429 0.000472565 0)
(0.00138652 0.000663646 -1.81062e-16)
(0.00139753 0.00058019 -1.72064e-16)
(0.00147016 0.000525535 3.18302e-16)
(-0.00159813 0.000507511 -2.54686e-16)
(-0.000186034 0.00218837 1.15142e-16)
(-0.00149269 0.000546397 0)
(-0.00146688 0.000560356 -9.60332e-17)
(0.00134186 0.000588813 2.0474e-17)
(0.00144095 0.00043289 8.36643e-17)
(0.00147746 0.000528864 -1.59367e-16)
(-0.00148367 0.000590239 0)
(-0.00146711 0.000546034 0)
(-0.0014669 0.000575303 9.81684e-17)
(-0.00142512 0.000595862 1.67118e-16)
(0.00145083 0.000576154 1.13529e-16)
(-0.00148775 0.000564799 -1.19901e-16)
(-0.0015079 0.000465755 9.28698e-17)
(0.0013606 0.000730923 0)
(0.00136643 0.000621214 -2.25139e-17)
(0.00141124 0.000553235 0)
(0.00144682 0.000510058 0)
(0.00130766 0.000490075 -1.87985e-16)
(0.00127101 0.000595312 -1.03701e-16)
(0.00133124 0.000644027 2.49579e-21)
(0.00140941 0.000580195 1.90324e-16)
(-0.0014444 0.00069117 -1.22454e-16)
(0.00145206 0.000575098 -1.20821e-16)
(0.00138045 0.000679051 0)
(0.0014095 0.000468631 1.64694e-16)
(0.00141749 0.000544487 -1.94803e-16)
(-0.00136457 0.000560812 2.6443e-21)
(0.00134736 0.000511514 1.65963e-16)
(-0.000815423 0.000513135 1.15541e-16)
(-0.00150281 0.000457384 1.80231e-16)
(-0.000327105 0.00189349 0)
(0.00058482 0.000455939 5.24744e-17)
(-0.00152019 0.000504064 8.87644e-17)
(0.00151409 0.000587328 -1.12859e-16)
(0.00150245 0.000585441 2.11529e-16)
(-0.00133115 0.000766491 2.41275e-16)
(0.000980465 0.00160436 -1.96894e-16)
(0.00143274 0.000464171 -3.03617e-16)
(-2.12779e-06 0.00196797 1.78757e-16)
(-0.00147186 0.000554264 0)
(-0.00149341 0.000501934 -2.72255e-16)
(0.00135838 0.000567023 9.95082e-17)
(-0.00146758 0.00059833 -3.04098e-16)
(-0.00146955 0.000572313 9.6676e-17)
(-0.00150497 0.000473986 -1.87131e-16)
(-0.00144099 0.000594006 0)
(0.00145279 0.000580638 2.24124e-16)
(0.00139205 0.000521433 0)
(0.00141191 0.0005507 0)
(0.0015089 0.000651657 6.541e-21)
(0.00148432 0.000620128 -2.43668e-16)
(-0.00149962 0.000463278 -1.82387e-16)
(-0.0014729 0.000568647 -1.83549e-16)
(-0.00145859 0.00059122 1.43947e-16)
(-0.00145057 0.000699202 -1.23705e-16)
(-0.00147411 0.000532737 -9.67477e-17)
(0.00138985 0.000557322 0)
(0.00139797 0.000568864 -1.99427e-16)
(0.00146411 0.000548905 0)
(0.00138018 0.000530847 9.6764e-17)
(0.00148274 0.000666904 1.28473e-16)
(-3.73626e-05 0.00139775 -9.13941e-17)
(0.00154634 0.000426409 2.88886e-16)
(-4.55364e-06 0.00196278 4.54404e-17)
(-0.00147089 0.000554285 -1.99512e-16)
(-0.00095754 0.000426485 1.00283e-16)
(0.00138124 0.000451106 -9.61106e-21)
(0.0015383 0.000531046 -2.48622e-16)
(-0.00146854 0.000571985 2.91593e-16)
(0.00149239 0.000557507 0)
(0.00135102 0.000910507 -1.77126e-16)
(0.00145293 0.000433193 -9.48477e-17)
(0.00142557 0.00052179 -1.78766e-16)
(-0.00148388 0.0004839 -9.12338e-17)
(-0.00146243 0.000607789 1.95446e-16)
(0.00142627 0.000563627 0)
(0.00153263 0.000479096 0)
(-0.000515648 0.000230872 -2.17177e-16)
(-0.00155564 0.000648618 1.19563e-16)
(-0.00150091 0.000467857 0)
(-0.00146625 0.000537287 0)
(0.00153011 0.00050554 0)
(-0.00146517 0.000566749 1.91174e-21)
(-0.00147798 0.000634109 9.36781e-17)
(-0.00150325 0.000493437 -9.37992e-17)
(0.00147351 0.000583923 3.97215e-21)
(-0.00147844 0.000557244 0)
(0.00133183 0.000560542 0)
(0.00135589 0.00175827 -1.16373e-17)
(-0.00157239 0.000657856 2.29076e-16)
(0.00148207 0.00053574 0)
(0.00129649 0.000651289 2.14588e-16)
(0.00138679 0.000585193 2.17939e-16)
(-0.00157137 0.000640704 1.14318e-16)
(-0.000177116 0.00197978 -7.06889e-21)
(-0.00141928 0.000584133 1.75078e-16)
(-0.00148169 0.00051946 1.9195e-16)
(0.00135485 0.000521388 0)
(-0.00147013 0.000554714 3.00571e-16)
(-0.00146316 0.000678115 -9.52167e-17)
(0.00145728 0.000564275 0)
(-0.00146651 0.000570931 0)
(0.00124438 0.000539047 3.4357e-16)
(0.00143348 0.000635282 0)
(0.00142207 0.00051923 0)
(0.00148594 0.000710905 2.58469e-17)
(0.00144497 0.000513817 0)
(0.00146566 0.000613285 -3.67871e-16)
(-0.00142683 0.000672532 0)
(-0.00142066 0.000664282 -1.80867e-16)
(-0.00142017 0.000662491 2.70923e-16)
(-0.00140066 0.000650569 8.88773e-17)
(0.00199847 0.00115755 1.48757e-16)
(-0.000448198 0.00209609 0)
(0.00145 0.000659636 2.13763e-16)
(-0.00148051 0.000535928 -1.9408e-16)
(0.0011435 0.000611914 -1.90308e-16)
(-0.00148944 0.000483342 0)
(0.00132045 0.000509919 -1.76631e-16)
(0.0014339 0.00050384 -2.98058e-18)
(-0.00146217 0.000568251 9.32579e-17)
(-0.00032497 0.00227136 -1.77907e-16)
(-0.000712724 0.00196769 1.1184e-17)
(0.000972622 0.000510883 0)
(0.0014664 0.000629439 0)
(0.0015793 0.000563353 0)
(0.00146115 0.000614061 5.94586e-21)
(-0.00147803 0.000520423 0)
(0.00142793 0.000541579 0)
(-0.00143724 0.00065798 -1.40088e-16)
(-0.00142214 0.000648807 1.83784e-16)
(3.12463e-05 0.00196511 -1.84692e-16)
(-0.00138277 0.00052614 1.99298e-16)
(-0.00141431 0.000658757 -4.53592e-17)
(0.00146099 0.000607302 1.95364e-16)
(0.00152976 0.000534719 -6.15114e-17)
(-0.00145835 0.000567749 1.85469e-16)
(0.00149408 0.000646009 0)
(-0.00142678 0.000662902 0)
(-0.00146987 0.000555641 0)
(-0.00148933 0.000567878 -1.08726e-16)
(0.00142152 0.000511825 -1.93043e-16)
(0.00135735 0.000568938 3.74739e-21)
(-0.00146586 0.000570711 0)
(-0.00147113 0.000534666 9.8324e-17)
(-0.000904145 0.0017942 0)
(0.00123631 0.000744216 0)
(0.000218426 0.00216985 8.61743e-17)
(0.00138247 0.00055541 5.74627e-17)
(-0.00143546 0.000642189 0)
(-0.00142865 0.00065426 0)
(-0.00142797 0.000649866 1.88217e-16)
(-0.00143366 0.000647523 -1.86174e-16)
(-0.00148663 0.00049165 2.97769e-16)
(-0.000145244 0.000364665 5.13888e-17)
(-0.00149852 0.000574982 -5.90062e-17)
(-0.00140987 0.00064967 6.237e-17)
(0.00143351 0.000564578 2.23735e-17)
(-0.00147554 0.000524854 -9.62583e-17)
(-0.000403908 0.00147049 -1.01156e-16)
(-0.001459 0.000697264 1.89326e-16)
(-0.00147799 0.000527752 1.92816e-16)
(0.00170008 0.00113663 0)
(-0.000164909 0.00148196 0)
(-0.00153708 0.000636327 6.10368e-21)
(0.00139505 0.000555159 2.04395e-16)
(0.0014733 0.000603646 -1.05649e-16)
(-0.00142457 0.000648707 1.81888e-16)
(0.001279 0.000475455 -1.31317e-16)
(0.000252263 0.000171218 1.07918e-16)
(-0.00142928 0.000650328 -3.65587e-16)
(2.68187e-05 0.00195179 0)
(-0.0016756 0.000606418 -3.66787e-17)
(-0.00143914 0.000646863 -2.11762e-16)
(-0.00143422 0.000647728 1.90019e-16)
(-0.000508608 0.000257433 2.17218e-16)
(-0.00146973 0.000538114 0)
(0.00154561 0.000336105 1.23013e-16)
(-0.00142782 0.000646328 -9.37847e-17)
(-0.00146063 0.000567324 -1.00073e-16)
(0.00146424 0.000531048 0)
(-0.00143027 0.000649145 0)
(-0.000990144 0.00216741 1.37276e-16)
(-0.0015163 0.000512352 -1.83737e-16)
(0.00142489 0.000492185 0)
(0.00148845 0.000676552 2.37179e-16)
(0.00142463 0.000567629 1.23124e-17)
(-0.000298696 0.00158686 2.58441e-16)
(-0.00147094 0.000556054 0)
(0.00138544 0.000587121 1.98132e-16)
(0.00143824 0.00054893 -2.63562e-16)
(-0.00147271 0.000533572 1.94297e-16)
(0.00151556 0.000716858 0)
(0.000242045 0.000168007 -1.10465e-16)
(-0.00158563 0.00066312 -2.39462e-22)
(-0.000264853 0.00202068 9.63406e-17)
(0.00142956 0.00053551 0)
(-0.0014838 0.000498331 -2.99176e-16)
(0.00132299 0.000751812 3.93346e-16)
(0.00129963 0.000760054 -9.1244e-17)
(0.00144307 0.000564923 -1.3295e-17)
(0.00144526 0.00048703 -1.26247e-16)
(0.00144485 0.000570741 1.94437e-16)
(0.00145878 0.00053702 0)
(-0.00161387 0.000493868 1.43578e-16)
(-0.0015231 0.000496056 -1.87091e-16)
(-0.00144017 0.000637101 -7.47197e-19)
(0.00136844 0.000655168 0)
(0.00134074 0.000579694 2.14671e-16)
(0.000462713 0.000168915 2.31986e-16)
(-0.00146187 0.000545276 1.95534e-16)
(-0.00142613 0.000644989 2.07963e-16)
(-0.00145862 0.000657968 0)
(-0.000901974 0.00211576 1.96762e-16)
(-0.00147554 0.000536934 5.91415e-21)
(0.00136189 0.000505222 1.14694e-16)
(-0.00146831 0.00054097 0)
(-0.0014355 0.000645852 -1.18783e-17)
(-0.00143436 0.000650146 0)
(-0.00143352 0.000648975 -1.85912e-16)
(-0.00147744 0.000571887 0)
(-0.000196107 0.00216464 -1.19592e-16)
(0.000975388 0.000540937 -3.44558e-16)
(0.00142646 0.000716167 1.25597e-16)
(-0.00147243 0.000537932 9.79711e-17)
(0.00140661 0.000555114 0)
(0.00150348 0.00070302 -1.26566e-16)
(-0.000248312 0.00214342 -1.90454e-16)
(0.00088567 0.000297897 -2.23907e-16)
(0.00142542 0.000583993 0)
(0.00146249 0.000641374 0)
(0.00141412 0.000601464 -1.87616e-16)
(-0.00148154 0.00050616 0)
(-0.00146232 0.000558106 1.9657e-16)
(-0.000361818 0.00235885 -6.17605e-18)
(-0.00155098 0.000658385 -1.01491e-16)
(-0.00135986 0.000522931 6.10878e-17)
(0.00139886 0.000541989 3.89324e-16)
(-0.0010433 0.00321671 -1.46077e-16)
(0.00239322 0.000942164 -1.97876e-16)
(0.00135811 0.000609551 -2.12585e-16)
(-0.00145312 0.000562008 9.64306e-17)
(-0.00145377 0.000675485 -1.21774e-17)
(-0.00142276 0.000654904 -1.89495e-16)
(0.00142198 0.000542362 2.09789e-16)
(-0.00145768 0.000552871 0)
(-0.00146875 0.00054231 9.90849e-17)
(-0.0016735 0.000601652 1.50958e-16)
(-0.00147511 0.000697005 0)
(-0.00145376 0.000661238 0)
(0.0015129 0.000691424 -1.23283e-16)
(0.00135065 0.000523785 0)
(-0.00146734 0.000556274 0)
(0.00136846 0.000510297 0)
(-0.00143599 0.000649089 1.18324e-17)
(-0.00145195 0.00064278 7.54737e-19)
(0.00132952 0.000447392 0)
(0.00143957 0.000544326 1.9289e-16)
(-2.79805e-05 0.00196445 0)
(0.00142055 0.000477297 0)
(-0.00147388 0.000540786 4.92539e-17)
(-0.00148266 0.00053122 -3.01484e-16)
(0.000151194 0.000874272 0)
(-0.00145844 0.000560457 -1.93418e-16)
(-0.00151576 0.000338671 9.23821e-17)
(-0.00151791 0.000597069 -4.28854e-21)
(-0.00157063 0.000532102 -2.43397e-16)
(-0.00167418 0.000589724 1.51161e-16)
(-0.00143796 0.000675993 0)
(-0.0014842 0.000513956 2.02116e-16)
(-0.00145716 0.000559839 1.00295e-16)
(0.00143316 0.000540489 0)
(-0.00144336 0.000501784 1.62546e-16)
(-0.0014627 0.000548117 -2.6874e-16)
(1.4742e-05 0.00191012 0)
(-0.00143007 0.00064361 -2.80437e-16)
(-0.00147954 0.00060249 0)
(-0.00147349 0.000548813 0)
(0.00145852 0.000539647 2.03118e-16)
(-0.00146806 0.000537236 1.01385e-16)
(0.00127686 0.000465442 2.14782e-16)
(0.00145804 0.00058586 -2.03932e-16)
(-0.00103314 0.00049916 0)
(-0.001558 0.00052414 0)
(-0.00145915 0.00056082 0)
(0.00142893 0.00055532 -2.12709e-16)
(0.00144259 0.000612652 0)
(0.00143976 0.000549801 0)
(-0.00156394 0.000678482 -2.99364e-16)
(0.000199592 0.00193553 2.17985e-16)
(-0.00144483 0.000669987 1.9228e-16)
(0.0014784 0.000455928 -2.15589e-16)
(-1.92045e-05 0.00102171 -6.19433e-17)
(-0.00146712 0.000572125 0)
(-0.00146361 0.000619745 2.99756e-16)
(-0.00140313 0.000658039 -1.8034e-16)
(0.000141222 0.00149516 1.08287e-16)
(0.00151141 0.000317689 0)
(0.00156742 0.000413858 1.14708e-16)
(0.00138017 0.000586718 1.77802e-16)
(-0.000296659 0.000225427 2.10734e-16)
(-0.00146174 0.000543853 -9.03933e-17)
(0.00144165 0.000569769 0)
(0.000894836 0.000336111 0)
(0.00122957 0.000380083 3.86491e-16)
(-0.00146086 0.000562196 0)
(0.00151583 0.000494574 -1.07229e-16)
(-0.00155999 0.000410249 1.26094e-16)
(-0.00147039 0.000559915 9.58122e-17)
(0.00139276 0.000558404 -1.95167e-16)
(-0.00164298 0.000618858 -1.3598e-16)
(-0.00137084 0.000573472 1.84899e-16)
(-0.00159992 0.000736384 1.01008e-16)
(-0.00109238 0.000428164 -1.08943e-16)
(-0.001474 0.000556618 0)
(-0.00146761 0.000558209 0)
(-9.03589e-05 0.000735144 0)
(-3.27463e-06 0.00190609 -2.50981e-16)
(-0.00156739 0.000554071 0)
(-0.00148215 0.000726463 -8.72305e-17)
(0.0014212 0.000552062 3.76164e-16)
(0.00136565 0.000578875 -1.11176e-16)
(0.00142208 0.00051026 3.7953e-16)
(0.00144033 0.000606117 -5.49155e-17)
(0.00143162 0.000543698 -5.54966e-21)
(-0.00145444 0.000585984 -4.9129e-17)
(-0.00145868 0.000566809 -9.6367e-17)
(-0.000118993 0.00225384 5.9739e-18)
(-0.00146369 0.000563764 -1.95297e-16)
(-0.00145417 0.000607899 -5.15032e-17)
(0.00136669 0.000592811 0)
(-0.00146685 0.000563072 -9.75871e-17)
(-0.00155235 0.000572913 -3.58921e-16)
(-0.00142338 0.000640172 -1.39395e-17)
(-0.00147457 0.000551583 0)
(-0.00148683 0.000484423 4.83497e-17)
(-0.00146677 0.000543115 -9.8767e-17)
(0.00155689 0.000685932 -2.08723e-16)
(-0.00145585 0.000577014 -9.94718e-17)
(0.000196678 0.00216533 6.9655e-18)
(0.00139691 0.000509477 2.44312e-17)
(-4.16433e-05 0.00214131 -1.9886e-16)
(-0.00162495 0.000663216 2.82352e-16)
(-0.00141663 0.000478529 -3.9853e-16)
(0.00143026 0.000552134 1.03054e-16)
(-0.00162763 0.00066372 1.25936e-16)
(0.000217223 0.00112044 8.11332e-17)
(-0.00145137 0.000575124 1.9798e-16)
(0.00138904 0.000477808 1.76671e-16)
(-1.5913e-05 0.00210149 0)
(-4.01722e-05 0.00187554 -2.83926e-16)
(-0.00145684 0.000601896 -1.57228e-16)
(0.00140899 0.000480822 -5.19585e-17)
(-1.64918e-05 0.00209596 7.90273e-19)
(0.00171313 0.000681124 9.76709e-17)
(-0.00134965 0.000539047 2.95298e-16)
(-0.00147128 0.000558941 -5.09885e-17)
(-0.00148798 0.000530459 0)
(-0.0015283 0.000563193 2.29031e-16)
(0.00141208 0.000570291 -2.02296e-16)
(-0.00145895 0.000568255 -9.68014e-17)
(0.00141192 0.000556201 0)
(-3.39679e-06 0.00208434 -2.01872e-16)
(-0.0015435 0.000593913 1.20769e-16)
(0.00164077 0.0014724 -3.66326e-16)
(0.00144908 0.000551216 0)
(-9.33155e-06 0.0020847 0)
(0.00148793 0.000597128 5.95219e-21)
(6.02318e-06 0.00207876 -2.0211e-16)
(3.28737e-06 0.0020835 4.01903e-16)
(-0.0014545 0.000570639 4.98493e-17)
(-0.000129659 0.00214612 1.97707e-16)
(-5.57753e-06 0.0020771 0)
(-1.34674e-05 0.00208697 2.01156e-16)
(-0.00145598 0.000567612 0)
(0.00167332 0.000940384 0)
(6.67416e-06 0.00208151 0)
(-3.26324e-06 0.00208119 -2.01439e-16)
(-0.00145101 0.000594841 0)
(-7.3713e-06 0.00208279 4.05272e-16)
(-0.00146801 0.000555841 0)
(-3.0858e-06 0.0020825 -2.02419e-16)
(-0.0014572 0.000567548 -2.93183e-16)
(-3.70662e-06 0.00207575 0)
(-0.0014427 0.000598076 9.67027e-17)
(-0.000655872 0.00238312 -4.71366e-17)
(0.00152189 0.000676491 2.50257e-16)
(0.00154782 0.000582474 0)
(4.16997e-07 0.00208054 1.45285e-20)
(-8.13617e-06 0.0020839 -1.99389e-16)
(-0.00147888 0.000492166 -8.51748e-17)
(0.00139413 0.000624076 -2.05743e-16)
(0.00126932 0.000514213 0)
(0.00142269 0.00054543 3.10263e-16)
(-1.56462e-06 0.00208154 2.01999e-16)
(-0.00145124 0.000569975 0)
(-5.11829e-05 0.00210474 2.00563e-16)
(-1.46379e-06 0.00207687 0)
(-3.59812e-06 0.00208003 -2.0488e-16)
(-0.00146244 0.000569962 0)
(0.00143328 0.000605774 1.95266e-16)
(-0.00146725 0.000561232 2.68334e-21)
(5.49581e-07 0.00207628 2.02885e-16)
(0.00145354 0.000532366 -4.19349e-16)
(0.000213392 0.00124275 0)
(-7.48395e-06 0.0020837 0)
(0.00161292 0.000745128 1.46624e-16)
(0.00141798 0.000496531 0)
(-0.000163469 0.00223281 0)
(-0.00146525 0.000554778 -3.5229e-16)
(-5.58739e-05 0.00213198 0)
(-0.00145844 0.000567494 9.75571e-17)
(-0.00123718 0.00105608 -5.25374e-17)
(-0.00145174 0.000595295 2.01112e-16)
(5.10127e-07 0.00207743 -4.04624e-16)
(-0.00149155 0.00054272 5.41572e-17)
(-0.00144156 0.000597907 1.92963e-16)
(-2.56492e-06 0.00207909 0)
(-5.14196e-06 0.00207598 -1.98248e-16)
(0.00135135 0.000460988 0)
(6.50417e-07 0.00208047 -2.04206e-16)
(1.24125e-06 0.00207884 0)
(-9.74184e-05 0.00216172 2.01275e-16)
(7.56887e-06 0.00188331 -2.27204e-16)
(-0.00140697 0.000596244 1.17406e-16)
(-3.01593e-05 0.00210846 9.81727e-20)
(0.00103455 0.000303956 0)
(-0.00149327 0.000547575 7.9985e-17)
(-0.00140733 0.000603747 4.68853e-17)
(4.35477e-06 0.0020751 4.05013e-16)
(-8.26527e-06 0.0020828 2.01601e-16)
(-0.00148998 0.000569347 -4.65998e-16)
(1.31423e-06 0.0020782 2.02683e-16)
(0.00132194 0.000426389 6.742e-21)
(-1.0616e-05 0.00207879 2.00601e-16)
(-0.00147175 0.000559082 0)
(-0.00145027 0.000582099 5.12179e-17)
(-1.1433e-06 0.00207945 -1.45953e-20)
(0.00141363 0.000693891 2.10081e-16)
(-0.00146411 0.000570627 -1.02841e-16)
(-0.00144379 0.000594891 -8.98994e-17)
(-5.14139e-06 0.00208195 -2.01524e-16)
(0.00142239 0.000557512 3.51594e-18)
(-3.4581e-07 0.0020803 -1.45994e-20)
(-0.00147531 0.000557381 4.80863e-17)
(6.73332e-06 0.00207662 0)
(-0.00146711 0.000554648 0)
(-1.20711e-05 0.00208196 -2.01465e-16)
(1.0491e-06 0.00207961 2.02265e-16)
(0.00142164 0.000590207 -2.45279e-17)
(-0.00149649 0.000511809 2.1972e-16)
(-1.09202e-05 0.00207908 1.99771e-16)
(2.60684e-06 0.00207636 0)
(-0.00145409 0.000590145 0)
(-0.00144729 0.00059535 1.53402e-16)
(-0.00149344 0.000477498 0)
(-7.56365e-05 0.00128684 -1.08308e-16)
(-3.96266e-07 0.00208011 2.02709e-16)
(-0.0014439 0.000593383 -1.45372e-16)
(-0.00145656 0.00056794 0)
(-0.00144926 0.000551904 5.30126e-17)
(-1.95296e-05 0.00208626 1.97006e-16)
(1.26011e-07 0.0020771 -1.46728e-20)
(-0.00145947 0.000558054 -5.14126e-17)
(0.00084558 0.000101845 -2.18993e-16)
(-1.8517e-05 0.00209081 -2.00425e-16)
(-5.91548e-06 0.00208245 2.02104e-16)
(2.96833e-06 0.00207725 2.02981e-16)
(-2.16487e-07 0.00208386 -2.00155e-16)
(0.00173511 0.000879382 -1.92047e-16)
(-1.23249e-05 0.00207913 -2.01108e-16)
(-0.00146987 0.000553852 0)
(-0.00143243 0.000524186 0)
(0.00137712 0.000528811 0)
(-3.18568e-06 0.00207695 -2.03569e-16)
(-0.00144196 0.000597444 2.48141e-16)
(0.00140937 0.000524685 -1.5715e-16)
(-0.00139587 0.000565409 2.71353e-16)
(-0.00145878 0.000566546 -1.96916e-16)
(-0.001461 0.000564578 -1.01262e-16)
(-0.00157492 0.000741401 -1.00454e-16)
(-5.97196e-06 0.00207814 -4.05791e-16)
(5.6893e-06 0.00207706 8.46294e-20)
(-0.00146949 0.000604835 -5.80045e-17)
(-0.00146197 0.000586699 4.59957e-17)
(-0.00146148 0.000568154 -5.05265e-17)
(8.33943e-06 0.0020796 -2.02616e-16)
(1.77781e-06 0.00207703 4.10224e-16)
(-1.01703e-05 0.00207927 -2.0296e-16)
(1.784e-06 0.00207925 -7.95364e-19)
(-0.00145754 0.000578174 4.91293e-17)
(-7.10583e-06 0.00207804 0)
(9.92924e-06 0.00207855 -2.03783e-16)
(6.78321e-06 0.00207631 2.0275e-16)
(8.5629e-06 0.0020797 3.50536e-20)
(-0.00146316 0.000550163 1.02069e-16)
(-1.17231e-05 0.00209081 0)
(-0.00146406 0.000556778 -2.00616e-16)
(-0.00149687 0.000542032 0)
(0.00143208 0.000548521 -2.22458e-16)
(-8.07893e-07 0.00207834 -1.57904e-18)
(0.00137199 0.000548091 1.97902e-16)
(1.31246e-06 0.00207855 -1.45332e-20)
(-0.000127149 0.00213306 0)
(-8.47626e-05 0.00210597 -1.9927e-16)
(-0.00146356 0.000558705 0)
(-0.00147563 0.000556741 -9.86558e-17)
(1.42076e-05 0.00207651 0)
(-0.001452 0.000562929 -2.14073e-16)
(-0.00145971 0.000572079 -1.06354e-16)
(0.00142465 0.000566775 2.13741e-16)
(8.0517e-07 0.00207743 -2.03083e-16)
(-1.18651e-05 0.00207933 -2.03159e-16)
(-0.00146659 0.000583517 5.55535e-17)
(-2.24803e-06 0.00207878 -2.00306e-16)
(-0.00144631 0.00054946 3.11585e-16)
(-9.60383e-06 0.00207764 -2.0229e-16)
(2.97056e-06 0.00207879 -1.45603e-20)
(-0.00144901 0.000615152 -2.36558e-16)
(-1.29845e-05 0.00207891 2.00629e-16)
(0.00143479 0.000542594 0)
(-0.00145755 0.00057009 -5.0251e-17)
(-7.59274e-07 0.0020779 3.1889e-18)
(-0.00146679 0.000548755 1.00775e-16)
(-3.52925e-07 0.00207734 -1.60073e-18)
(-0.00145796 0.00055989 5.04603e-17)
(-0.00137822 0.000513175 0)
(5.47166e-06 0.00207883 -1.46321e-20)
(-0.0015905 0.000670636 3.00916e-16)
(1.25627e-06 0.00207988 2.0447e-16)
(0.0013211 0.000670207 -5.87774e-17)
(-0.00139475 0.000621824 1.95205e-16)
(-4.54241e-07 0.00207858 2.04615e-16)
(0.0010626 0.000418346 2.15026e-16)
(-2.71597e-06 0.00207863 2.0332e-16)
(1.62026e-06 0.00207878 3.17269e-18)
(0.00121799 0.000445074 2.27232e-16)
(0.00130611 0.000458164 -2.1254e-16)
(0.00148531 0.000588154 0)
(-0.00155787 0.000635391 0)
(-1.19522e-05 0.0020788 -1.59107e-18)
(0.00135316 0.000512603 2.7997e-16)
(-1.15598e-05 0.00207769 -1.57972e-18)
(-0.00146115 0.000565669 -9.82426e-17)
(0.00132824 0.000454651 0)
(1.08711e-05 0.0020779 -4.05554e-16)
(1.77718e-06 0.00207815 -4.08069e-16)
(-0.00145343 0.000586051 0)
(-0.0014629 0.000549132 0)
(1.22589e-06 0.00207976 -4.0552e-16)
(-4.15435e-05 0.00209956 0)
(-0.00145199 0.000599931 -1.9548e-16)
(-2.79263e-05 0.00209009 -4.00514e-16)
(-0.00132833 0.00047992 0)
(0.00150249 0.000481274 5.24847e-17)
(1.46358e-07 0.00207599 -1.6074e-18)
(4.73412e-06 0.0020804 2.04311e-16)
(0.00113704 0.000708584 -7.03677e-18)
(5.54435e-07 0.00207812 -2.04793e-16)
(-0.00147106 0.0005418 1.57437e-16)
(-0.00154982 0.000717508 1.38983e-16)
(-1.28477e-05 0.00207846 2.01868e-16)
(-0.00146659 0.000548275 1.45748e-16)
(-2.27085e-06 0.00207909 2.04813e-16)
(-1.19481e-05 0.00207794 -2.02605e-16)
(-1.34749e-05 0.00207816 -2.01908e-16)
(-0.00144781 0.000588852 0)
(-0.00146462 0.000550322 -4.98683e-17)
(-1.46848e-06 0.00207775 -7.98783e-19)
(1.23062e-05 0.00207857 0)
(-0.00144577 0.000587114 1.98689e-16)
(-0.00145815 0.000550374 0)
(1.88219e-06 0.00207778 -2.03401e-16)
(-1.00613e-05 0.00208485 3.16231e-18)
(0.0014222 0.000552559 -2.14735e-16)
(1.88154e-06 0.00207839 -4.10853e-16)
(-0.00157067 0.000617452 3.41576e-16)
(-7.6568e-07 0.00207828 0)
(-6.70995e-07 0.0020791 2.0276e-16)
(-4.02246e-07 0.00207851 0)
(-8.49029e-08 0.00207855 2.02821e-16)
(1.52799e-06 0.00207798 -2.02308e-16)
(0.00121939 0.000475398 1.21377e-16)
(5.55644e-07 0.00207761 2.0245e-16)
(9.60524e-07 0.00208221 -1.46573e-20)
(-2.20931e-08 0.00207825 2.04803e-16)
(-1.39782e-05 0.00207855 4.04648e-16)
(-0.00146506 0.000559814 0)
(-0.00146379 0.000564365 -5.25276e-17)
(-1.21644e-05 0.00207822 0)
(-2.77362e-07 0.00207836 0)
(-1.41026e-06 0.00207752 -2.06613e-16)
(1.23297e-05 0.00207919 2.03099e-16)
(1.019e-05 0.0020793 2.03864e-16)
(-0.00146066 0.000568636 2.57697e-16)
(1.09804e-05 0.00207825 2.03295e-16)
(-7.98656e-07 0.00207895 -2.04794e-16)
(-1.98898e-06 0.00207843 0)
(-5.46806e-07 0.00207826 -1.47062e-20)
(-0.00146389 0.000564037 1.00376e-16)
(1.22043e-05 0.00207849 0)
(1.15228e-05 0.00207783 2.03437e-16)
(-4.88663e-06 0.0020823 -2.05257e-16)
(-0.00146966 0.000548112 0)
(-1.75211e-08 0.00207831 0)
(0.00143558 0.000552428 -2.13232e-16)
(-2.52738e-07 0.0020797 1.59879e-18)
(-2.02136e-07 0.00208016 -3.9854e-19)
(-9.97408e-06 0.00207655 -7.92069e-19)
(-1.35228e-05 0.00207795 1.46016e-20)
(-1.09044e-05 0.00207714 7.92717e-19)
(-0.00146093 0.000634992 -1.24096e-16)
(-1.30253e-05 0.00207698 2.03611e-16)
(6.95001e-06 0.00207785 0)
(-1.27674e-05 0.00207726 2.02163e-16)
(-1.29318e-05 0.00207766 -2.02509e-16)
(-1.36323e-05 0.00207852 -2.0345e-16)
(-0.00176572 0.0014444 -3.08463e-16)
(-0.000336579 0.000416316 -3.84299e-16)
(1.2575e-05 0.00207877 -2.03714e-16)
(-1.24897e-06 0.00207859 -2.03073e-16)
(1.46031e-07 0.00207906 -2.03026e-16)
(1.12977e-05 0.0020778 2.03499e-16)
(-0.00147125 0.000554989 -2.02474e-16)
(-1.44894e-05 0.0020775 2.02141e-16)
(-1.21318e-06 0.00207864 -2.02691e-16)
(-9.50559e-06 0.0020826 -4.03168e-16)
(-1.08667e-06 0.00207797 -1.6033e-18)
(1.34347e-05 0.0020779 2.02729e-16)
(0.00142443 0.000546353 2.13266e-16)
(-4.43401e-06 0.00207927 -2.0273e-16)
(8.16676e-07 0.00207826 -1.459e-20)
(0.00151769 0.000626457 -2.63006e-16)
(-4.45705e-07 0.00207818 0)
(-9.27716e-07 0.00207824 0)
(-1.44186e-05 0.00207794 -4.06255e-16)
(-0.00146386 0.000561784 1.00717e-16)
(2.69163e-07 0.00207704 -4.00494e-19)
(-1.67221e-05 0.00207862 2.12279e-19)
(0.00143325 0.000533587 1.41756e-17)
(-1.53781e-05 0.0020796 2.03076e-16)
(1.52266e-05 0.0020787 2.03049e-16)
(1.39396e-05 0.00207836 -2.02902e-16)
(3.49179e-06 0.00207815 -2.03472e-16)
(-1.63464e-05 0.00207881 1.45948e-20)
(-0.00152135 0.0005414 -2.15475e-16)
(-0.00124972 0.000483406 2.65479e-16)
(-1.44459e-06 0.00207625 -1.46746e-20)
(-9.14108e-07 0.0020785 -2.0259e-16)
(-0.00145079 0.000589302 5.11239e-17)
(1.31961e-06 0.00207793 -1.47064e-20)
(-1.50759e-05 0.00207728 8.05152e-19)
(1.51399e-05 0.00207794 -4.06044e-16)
(6.92379e-06 0.002076 2.03834e-16)
(1.28611e-05 0.00207754 -2.03832e-16)
(1.26485e-05 0.00207798 -2.03827e-16)
(1.51183e-05 0.00207822 2.03126e-16)
(1.26053e-05 0.00207766 1.9868e-19)
(1.50046e-05 0.00207827 0)
(0.00143557 0.000542811 0)
(-1.22219e-05 0.0020784 2.04489e-16)
(-9.87779e-07 0.00208057 0)
(2.73417e-06 0.00207976 2.03737e-16)
(1.50374e-05 0.0020782 0)
(1.49734e-05 0.00207838 2.03194e-16)
(1.51702e-05 0.00207805 -9.91916e-20)
(1.59299e-06 0.00207986 1.99364e-16)
(1.36273e-05 0.0020791 0)
(-3.91184e-06 0.00208032 0)
(-1.26948e-05 0.00207998 -2.04709e-16)
(-0.00146072 0.000564303 -2.47428e-21)
(1.33756e-05 0.00207814 0)
(-3.06807e-05 0.00211372 0)
(1.31447e-05 0.00207818 0)
(-0.00142745 0.000544563 1.57171e-16)
(1.03846e-06 0.00207871 -2.02843e-16)
(-9.44716e-06 0.00208266 2.04682e-16)
(1.37446e-05 0.00207938 -9.94052e-20)
(-0.00143218 0.000598466 5.56768e-17)
(-0.00145257 0.000590528 -5.08322e-17)
(1.20265e-05 0.002079 -2.03821e-16)
(-3.60619e-06 0.00207499 0)
(-5.0604e-07 0.00208184 -2.03901e-16)
(1.21894e-05 0.00207915 1.46469e-20)
(1.51164e-05 0.00207795 -2.0366e-16)
(-1.46156e-06 0.00207347 4.05043e-16)
(0.00138342 0.000473662 -3.65596e-16)
(0.00143149 0.000553974 -4.30921e-16)
(-2.10016e-06 0.00207894 4.07252e-16)
(0.00141349 0.000557402 0)
(1.19017e-05 0.00207914 0)
(1.53578e-05 0.00207764 -3.96999e-19)
(-0.0014887 0.000589208 -1.84023e-16)
(-0.00145818 0.000596399 1.05906e-16)
(9.46158e-07 0.00207744 -1.00204e-19)
(1.20184e-05 0.00207932 2.03872e-16)
(1.27745e-06 0.00207827 -2.03131e-16)
(-0.0013332 0.00127418 1.02777e-16)
(1.13785e-05 0.00207909 7.9685e-19)
(-1.47345e-05 0.00207945 2.03303e-16)
(-1.21052e-06 0.00208108 2.04073e-16)
(-0.001665 0.000852228 -2.01501e-16)
(1.17559e-05 0.00207974 0)
(-8.50269e-07 0.0020785 4.01576e-19)
(-3.18415e-06 0.00208044 -2.03106e-16)
(-0.00146479 0.000555383 0)
(0.00147527 0.000405309 3.85787e-16)
(-0.00144206 0.000599274 5.36682e-17)
(1.12446e-05 0.00207929 -7.96982e-19)
(1.57792e-06 0.00207895 -2.0383e-16)
(-1.31142e-05 0.00207705 -2.03658e-16)
(-0.00145801 0.00058556 3.04097e-16)
(1.12863e-05 0.00207999 -2.04091e-16)
(-1.72219e-05 0.00207782 7.93025e-19)
(9.04448e-07 0.0020774 2.00592e-19)
(1.4e-05 0.00207787 0)
(-4.40161e-07 0.00208149 0)
(1.4187e-05 0.00207772 0)
(1.48028e-06 0.00207895 0)
(-0.00146037 0.000555117 -5.05809e-17)
(-1.54563e-05 0.00207708 0)
(-1.0189e-06 0.00207838 0)
(0.00154381 0.000720699 1.57511e-16)
(9.74967e-07 0.002079 0)
(-8.39779e-05 0.00216393 0)
(-4.12046e-07 0.00208142 4.08012e-16)
(7.60454e-07 0.00207742 0)
(0.00142193 0.000523012 -4.81148e-17)
(0.00143101 0.000555674 0)
(0.00128582 0.000633754 1.05924e-16)
(0.00140352 0.000507022 -2.062e-16)
(1.62644e-06 0.00207905 -4.07226e-16)
(-0.00132111 0.000572669 0)
(6.46795e-07 0.00207904 -1.99182e-19)
(-0.00145049 0.000586734 -9.91587e-17)
(1.576e-05 0.002078 0)
(0.000709266 0.000811343 0)
(2.5625e-07 0.00207845 -4.02034e-19)
(1.23297e-06 0.00208371 -1.26935e-17)
(0.000535243 0.00127754 -7.05269e-18)
(1.39959e-05 0.00207675 0)
(1.67761e-06 0.00207838 0)
(-0.00145714 0.000573491 0)
(-6.70678e-07 0.00207846 4.06412e-16)
(-5.95149e-07 0.00207897 0)
(0.00142774 0.000547836 3.89405e-21)
(0.000404059 0.00119889 0)
(-7.18368e-08 0.00207861 4.14448e-19)
(-1.74344e-07 0.00207965 -2.04147e-16)
(1.06204e-06 0.00207813 -2.03127e-16)
(8.94741e-07 0.00207754 -4.02708e-19)
(3.85156e-07 0.0020778 0)
(8.06111e-07 0.00207981 1.47225e-20)
(0.0014633 0.000516465 0)