/*--------------------------------*- C++ -*----------------------------------*\
  =========                 |
  \\      /  F ield         | OpenFOAM: The Open Source CFD Toolbox
   \\    /   O peration     | Website:  https://openfoam.org
    \\  /    A nd           | Version:  12
     \\/     M anipulation  |
\*---------------------------------------------------------------------------*/
FoamFile
{
    format      ascii;
    class       volVectorField;
    location    "0.27";
    object      U;
}
// * * * * * * * * * * * * * * * * * * * * * * * * * * * * * * * * * * * * * //

dimensions      [0 1 -1 0 0 0 0];

internalField   nonuniform List<vector> 
4428
(
(0.00205385 0.000778389 1.01427e-16)
(-0.00208068 0.000856783 -9.03813e-17)
(-0.00187266 0.000857557 0)
(-0.00195597 0.00082288 0)
(0.00188455 0.00155515 8.16377e-17)
(0.00193398 0.0015885 3.2055e-21)
(-0.00186868 0.00105796 0)
(-0.00209873 0.000749791 1.46408e-16)
(0.00200509 0.000811926 -2.49061e-16)
(0.00206488 0.000607503 9.95358e-17)
(-0.00189724 0.000664904 -1.73327e-16)
(0.00193248 0.000796526 -1.76859e-16)
(-0.00214883 0.000466194 -2.03654e-16)
(-0.000678905 0.00241864 -9.58138e-17)
(0.00202185 0.000787226 0)
(0.00183968 0.000681781 0)
(0.00207556 0.000743962 0)
(-0.00189886 0.000662339 0)
(-0.00216269 0.000464926 0)
(0.00204177 0.000792653 0)
(0.000729327 0.000597454 -4.48032e-16)
(-0.00206999 0.000795259 -1.77699e-16)
(-0.00195793 0.000828215 0)
(-0.0021172 0.00073366 0)
(-0.00206034 0.000785453 2.26613e-17)
(-0.00195925 0.000732223 0)
(-0.00197511 0.00103291 1.03354e-16)
(0.00197835 0.000657316 2.078e-16)
(0.00184276 0.000904435 0)
(-0.00216884 0.000514287 0)
(0.00200006 0.000509661 0)
(-0.00209471 0.000795025 -1.842e-16)
(0.00204015 0.000648683 -9.00179e-17)
(-0.00212114 0.00102367 -2.77415e-16)
(-6.60037e-06 0.00279123 4.69761e-17)
(-0.00209083 0.000812314 1.99858e-16)
(-0.00204366 0.0010206 -4.43863e-21)
(0.00190301 0.00256572 1.2704e-17)
(-0.000320393 0.00241564 -2.62228e-17)
(-0.00196003 0.000856946 0)
(0.00205093 0.000738952 0)
(0.00188476 0.000614658 0)
(0.00196762 0.000672579 9.24303e-17)
(-0.00212992 0.000690796 1.66055e-16)
(0.00205369 0.000662285 0)
(0.00168052 0.000624954 0)
(0.00197158 0.0018767 -9.97813e-17)
(-0.00195772 0.000941298 2.0314e-16)
(-0.00198248 0.000824085 2.24455e-16)
(-0.00204534 0.00089489 0)
(0.00204737 0.000850389 0)
(0.00184834 0.000869123 1.88119e-16)
(0.00208314 0.00059528 -9.13168e-17)
(0.0018734 0.000888303 0)
(0.00190835 0.000800936 -1.39781e-17)
(0.00122176 0.000590775 0)
(0.00181324 0.000855161 -9.2991e-17)
(-0.00201116 0.000667653 0)
(0.00170982 0.00182981 1.82956e-16)
(0.00200127 0.000695799 -1.82008e-16)
(0.00209183 0.000805635 1.67094e-16)
(-0.00208496 0.000667521 0)
(0.00182787 0.00073083 2.79948e-16)
(-0.00208966 0.000790927 9.26965e-17)
(-0.00208644 0.000813907 0)
(0.00192357 0.000846076 0)
(-0.00213143 0.000703498 1.73154e-16)
(-0.00197228 0.000839209 -1.85817e-16)
(0.00198352 0.000710475 -1.82182e-16)
(-0.00201233 0.000875563 -3.61902e-16)
(-0.00213929 0.000674517 -9.16114e-17)
(0.00202086 0.000917479 2.12649e-16)
(0.00217807 0.000942824 5.80492e-17)
(-0.00194543 0.000807383 4.46945e-17)
(0.0020473 0.000713387 1.96646e-16)
(-3.56695e-05 0.00276782 -1.8329e-16)
(0.00207941 0.000948526 0)
(0.00214047 0.000823482 0)
(-0.00188552 0.00106423 -1.18141e-16)
(0.00147476 0.000705661 -4.37932e-21)
(0.00182666 0.000933837 -1.97535e-16)
(-0.00212608 0.000676258 0)
(0.0019804 0.000942718 -1.8106e-16)
(0.00198511 0.000815756 -1.72063e-16)
(0.0020791 0.000739986 3.18299e-16)
(-0.00226133 0.000734879 -2.54683e-16)
(-0.000256974 0.00309534 1.1514e-16)
(-0.00212257 0.000776635 0)
(-0.0020844 0.000798769 -9.60323e-17)
(0.00190894 0.000837243 2.04738e-17)
(0.00204848 0.000620523 8.36636e-17)
(0.00210095 0.000752189 -1.59365e-16)
(-0.00210059 0.000836774 0)
(-0.00206769 0.00076847 0)
(-0.00208552 0.000814746 9.81676e-17)
(-0.00202954 0.000841656 1.67117e-16)
(0.00204685 0.000815049 1.13528e-16)
(-0.00209777 0.000796272 -1.199e-16)
(-0.00214155 0.000669216 9.28689e-17)
(0.00193281 0.00102183 0)
(0.00194722 0.000878412 -2.25137e-17)
(0.00200955 0.000785155 0)
(0.00205891 0.000728133 0)
(0.00186342 0.000695992 -1.87983e-16)
(0.00179142 0.000831001 -1.037e-16)
(0.00189859 0.000918528 2.4905e-21)
(0.00199559 0.000821315 1.90323e-16)
(-0.00204738 0.000972387 -1.22453e-16)
(0.00204226 0.000815941 -1.2082e-16)
(0.0019703 0.000955245 0)
(0.00200144 0.000670973 1.64693e-16)
(0.00201396 0.000774714 -1.94801e-16)
(-0.00194325 0.000797058 2.65825e-21)
(0.00191919 0.000727206 1.65961e-16)
(-0.00115123 0.000725357 1.15541e-16)
(-0.00213134 0.000655584 1.8023e-16)
(-0.000469571 0.00268772 0)
(0.000829024 0.000644886 5.24742e-17)
(-0.00215757 0.000723924 8.87636e-17)
(0.00214191 0.000824343 -1.12858e-16)
(0.00211629 0.000825754 2.11526e-16)
(-0.00188777 0.0010718 2.41272e-16)
(0.00139327 0.00227943 -1.96892e-16)
(0.00202273 0.000654559 -3.03614e-16)
(-1.39025e-05 0.00279157 1.78755e-16)
(-0.00209081 0.000790404 0)
(-0.00212065 0.000720723 -2.72253e-16)
(0.00193072 0.000796726 9.95074e-17)
(-0.00208738 0.000849205 -3.04095e-16)
(-0.00208785 0.000811383 9.66751e-17)
(-0.00213729 0.000680056 -1.8713e-16)
(-0.00204836 0.000842379 0)
(0.0020588 0.000821515 2.24122e-16)
(0.00197933 0.000736495 0)
(0.00200637 0.00078438 0)
(0.00214385 0.000926298 6.54179e-21)
(0.00209144 0.00087178 -2.43664e-16)
(-0.00212696 0.000663861 -1.82385e-16)
(-0.00209233 0.00081159 -1.83547e-16)
(-0.00207296 0.00084021 1.43946e-16)
(-0.00205599 0.000983447 -1.23704e-16)
(-0.00209552 0.000757752 -9.67468e-17)
(0.00197506 0.00078984 0)
(0.00198491 0.00081225 -1.99426e-16)
(0.0020809 0.000781813 0)
(0.00195863 0.000750347 9.67632e-17)
(0.00209661 0.000932596 1.28471e-16)
(-5.59917e-05 0.00198272 -9.13934e-17)
(0.00219192 0.000621146 2.88883e-16)
(3.70773e-06 0.00278444 4.54399e-17)
(-0.00208946 0.000790096 -1.9951e-16)
(-0.00136408 0.000602716 1.00283e-16)
(0.0019536 0.000653286 -9.60039e-21)
(0.00217429 0.000755668 -2.48619e-16)
(-0.00208645 0.000811158 2.9159e-16)
(0.00212251 0.000795952 0)
(0.00191306 0.00129286 -1.77125e-16)
(0.00206774 0.000622274 -9.48469e-17)
(0.00201519 0.000748378 -1.78764e-16)
(-0.00210719 0.000694982 -9.1233e-17)
(-0.00207797 0.000862316 1.95444e-16)
(0.0020295 0.000800995 0)
(0.00217 0.000688055 0)
(-0.000732738 0.000327498 -2.17176e-16)
(-0.00221451 0.000914807 1.19562e-16)
(-0.00212861 0.000669779 0)
(-0.0020837 0.000764113 0)
(0.00216646 0.000732113 0)
(-0.00208071 0.000808577 1.90321e-21)
(-0.00210426 0.000898284 9.36772e-17)
(-0.00213616 0.000707618 -9.37983e-17)
(0.00209772 0.000827796 3.95185e-21)
(-0.002103 0.000795444 0)
(0.00190269 0.000798269 0)
(0.00192941 0.00249699 -1.16372e-17)
(-0.00223913 0.000929199 2.29073e-16)
(0.00210482 0.000764446 0)
(0.00185089 0.000915926 2.14586e-16)
(0.00196544 0.000822153 2.17937e-16)
(-0.00223844 0.000899365 1.14317e-16)
(-0.000235009 0.00281593 -7.09828e-21)
(-0.00201527 0.000823626 1.75076e-16)
(-0.00210522 0.000739363 1.91949e-16)
(0.00191941 0.000742503 0)
(-0.00208859 0.00079043 3.00568e-16)
(-0.00208554 0.000956697 -9.52158e-17)
(0.00207178 0.000800624 0)
(-0.0020837 0.000810005 0)
(0.00175923 0.000772412 3.43567e-16)
(0.00202763 0.000894623 0)
(0.00201826 0.000738798 0)
(0.0021121 0.000999103 2.58466e-17)
(0.00205356 0.000733676 0)
(0.00209187 0.00086092 -3.67867e-16)
(-0.00203405 0.000945461 0)
(-0.00202293 0.000931724 -1.80865e-16)
(-0.00202298 0.000929193 2.70921e-16)
(-0.00199142 0.0009131 8.88766e-17)
(0.0028392 0.00164292 1.48755e-16)
(-0.000627317 0.00298064 0)
(0.00206013 0.000937643 2.13761e-16)
(-0.00210318 0.000761842 -1.94078e-16)
(0.00161599 0.000864961 -1.90306e-16)
(-0.00211442 0.000691924 0)
(0.0018797 0.000721213 -1.76629e-16)
(0.0020376 0.00071591 -2.98055e-18)
(-0.00207656 0.000810115 9.32571e-17)
(-0.000460769 0.00322576 -1.77905e-16)
(-0.000998358 0.00279468 1.11839e-17)
(0.00138227 0.000728013 0)
(0.00208157 0.000889234 0)
(0.00222437 0.000803551 0)
(0.00207671 0.00087337 5.95108e-21)
(-0.00209979 0.000740503 0)
(0.00202659 0.000776109 0)
(-0.00204698 0.000924297 -1.40087e-16)
(-0.00202455 0.000910746 1.83782e-16)
(3.26229e-05 0.0027881 -1.8469e-16)
(-0.0019644 0.000738377 1.99296e-16)
(-0.00201419 0.000923639 -4.53588e-17)
(0.00207816 0.000861849 1.95362e-16)
(0.00215802 0.000757956 -6.15106e-17)
(-0.00207263 0.000805802 1.85468e-16)
(0.00211079 0.000906159 0)
(-0.00203311 0.000930454 0)
(-0.00208864 0.00079147 0)
(-0.00212312 0.000806167 -1.08725e-16)
(0.00201822 0.000728603 -1.93041e-16)
(0.0019294 0.000804811 3.73068e-21)
(-0.00208315 0.000810065 0)
(-0.00209067 0.00076004 9.83231e-17)
(-0.00128272 0.00254546 0)
(0.00175502 0.0010345 0)
(0.000302768 0.003071 8.6173e-17)
(0.00196492 0.000784792 5.74622e-17)
(-0.00204419 0.00090273 0)
(-0.0020338 0.000918899 0)
(-0.00203223 0.000913427 1.88215e-16)
(-0.0020408 0.000910641 -1.86172e-16)
(-0.00211059 0.000703021 2.97766e-16)
(-0.000205818 0.00050756 5.13886e-17)
(-0.00211108 0.000804943 -5.90055e-17)
(-0.00201243 0.000911909 6.23693e-17)
(0.00204179 0.000799309 2.23733e-17)
(-0.00209636 0.000746616 -9.62575e-17)
(-0.000574977 0.00208065 -1.01155e-16)
(-0.00207362 0.00098817 1.89324e-16)
(-0.00209774 0.000748912 1.92814e-16)
(0.00241681 0.00161658 0)
(-0.000234665 0.00210554 0)
(-0.00218277 0.000907101 6.12059e-21)
(0.00198169 0.000788932 2.04393e-16)
(0.00210278 0.000851523 -1.05648e-16)
(-0.00202852 0.000911432 1.81886e-16)
(0.00182801 0.000682727 -1.31316e-16)
(0.000355633 0.000243381 1.07918e-16)
(-0.00203528 0.000914019 -3.65584e-16)
(4.71438e-05 0.00276978 0)
(-0.00237344 0.000868005 -3.66781e-17)
(-0.00204801 0.000910876 -2.1176e-16)
(-0.00204067 0.000911573 1.90018e-16)
(-0.000721489 0.000366585 2.17218e-16)
(-0.0020885 0.000764909 0)
(0.00218159 0.00048899 1.23011e-16)
(-0.00203218 0.000908897 -9.37839e-17)
(-0.00207562 0.000807 -1.00072e-16)
(0.00206541 0.000748702 0)
(-0.00203648 0.000913146 0)
(-0.0014056 0.00308085 1.37274e-16)
(-0.0021544 0.000727255 -1.83735e-16)
(0.00202217 0.000699461 0)
(0.00211568 0.000947187 2.37176e-16)
(0.00202431 0.000806624 1.23123e-17)
(-0.000430518 0.00224887 2.58438e-16)
(-0.00209009 0.000790094 0)
(0.00196489 0.000827944 1.9813e-16)
(0.00204123 0.000784562 -2.6356e-16)
(-0.00209259 0.000758924 1.94295e-16)
(0.0021423 0.00100435 0)
(0.000341701 0.000240787 -1.10465e-16)
(-0.00223738 0.000936892 -2.33272e-22)
(-0.000385517 0.00287503 9.63395e-17)
(0.00203324 0.000755611 0)
(-0.00210686 0.000711773 -2.99174e-16)
(0.00187704 0.00106881 3.93342e-16)
(0.00184638 0.00108674 -9.12431e-17)
(0.00205211 0.000802179 -1.32949e-17)
(0.00205153 0.000690064 -1.26246e-16)
(0.00204989 0.000808565 1.94435e-16)
(0.0020774 0.000762759 0)
(-0.00229287 0.000708119 1.43576e-16)
(-0.00216317 0.000703529 -1.8709e-16)
(-0.00204848 0.000898918 -7.4719e-19)
(0.00194724 0.000922453 0)
(0.00190645 0.000814259 2.1467e-16)
(0.000655336 0.000245799 2.31985e-16)
(-0.00207728 0.000775504 1.95532e-16)
(-0.00203052 0.000907236 2.07961e-16)
(-0.00207504 0.000928374 0)
(-0.00128499 0.00300832 1.96759e-16)
(-0.00209587 0.0007638 5.92091e-21)
(0.0019332 0.000710579 1.14693e-16)
(-0.00208642 0.000769061 0)
(-0.0020427 0.000909331 -1.18782e-17)
(-0.00204201 0.000915694 0)
(-0.00204112 0.000913099 -1.8591e-16)
(-0.0021049 0.000809802 0)
(-0.000271343 0.00306381 -1.1959e-16)
(0.00139734 0.000766986 -3.44556e-16)
(0.00203458 0.00100531 1.25595e-16)
(-0.0020925 0.000764924 9.79702e-17)
(0.00199859 0.00078809 0)
(0.00213686 0.000987924 -1.26564e-16)
(-0.000354342 0.00304601 -1.90452e-16)
(0.00126155 0.000424508 -2.23905e-16)
(0.00202548 0.000829322 0)
(0.00208481 0.000906959 0)
(0.00200794 0.000853874 -1.87615e-16)
(-0.00210412 0.000722257 0)
(-0.00207818 0.000793071 1.96569e-16)
(-0.000512311 0.00335097 -6.17597e-18)
(-0.00220385 0.000924343 -1.0149e-16)
(-0.00193669 0.000745357 6.10871e-17)
(0.00198619 0.000769024 3.8932e-16)
(-0.00148277 0.00457987 -1.46074e-16)
(0.00339945 0.00133718 -1.97874e-16)
(0.00192973 0.000852947 -2.12583e-16)
(-0.0020661 0.000796054 9.64298e-17)
(-0.00206561 0.000955048 -1.21773e-17)
(-0.002025 0.000921879 -1.89493e-16)
(0.00202148 0.000770602 2.09788e-16)
(-0.00206852 0.000791694 0)
(-0.0020873 0.00077097 9.90841e-17)
(-0.00237003 0.000861616 1.50956e-16)
(-0.0020981 0.000985557 0)
(-0.00206804 0.000932965 0)
(0.00215874 0.000975299 -1.23282e-16)
(0.00192136 0.000749181 0)
(-0.00208283 0.000793821 0)
(0.0019431 0.000719527 0)
(-0.00204493 0.000915361 1.18323e-17)
(-0.00206643 0.000908118 7.5473e-19)
(0.0018898 0.000646841 0)
(0.00204811 0.000782518 1.92888e-16)
(-4.96006e-05 0.00278637 0)
(0.00200826 0.000684414 0)
(-0.0020936 0.000767733 4.92534e-17)
(-0.00210729 0.000756976 -3.01482e-16)
(0.000218898 0.00124664 0)
(-0.0020734 0.000794466 -1.93417e-16)
(-0.00214021 0.000482241 9.23813e-17)
(-0.00213411 0.000845311 -4.25154e-21)
(-0.00223659 0.000763168 -2.43394e-16)
(-0.0023705 0.000845112 1.51158e-16)
(-0.00204591 0.000953765 0)
(-0.00210881 0.000732175 2.02114e-16)
(-0.00207083 0.000795629 1.00295e-16)
(0.00203636 0.000767526 0)
(-0.00205222 0.000718505 1.62545e-16)
(-0.00207741 0.00078182 -2.68738e-16)
(3.52509e-05 0.00271348 0)
(-0.0020374 0.000907554 -2.80435e-16)
(-0.00211209 0.000848127 0)
(-0.00209388 0.000780576 0)
(0.00207463 0.00077319 2.03116e-16)
(-0.0020857 0.000763335 1.01384e-16)
(0.0018126 0.000665237 2.14781e-16)
(0.00207765 0.000831082 -2.0393e-16)
(-0.00147001 0.000707213 0)
(-0.00221438 0.000746757 0)
(-0.00207414 0.000795262 0)
(0.00203192 0.000788502 -2.12707e-16)
(0.00203888 0.000856474 0)
(0.00204259 0.000783938 0)
(-0.00222274 0.000964625 -2.99361e-16)
(0.000263994 0.00275874 2.17982e-16)
(-0.00205642 0.000946881 1.92278e-16)
(0.00208554 0.000646581 -2.15587e-16)
(-1.85572e-05 0.00145133 -6.1943e-17)
(-0.00208495 0.00081321 0)
(-0.00208222 0.000877081 2.99753e-16)
(-0.0019974 0.000929221 -1.80338e-16)
(0.000189507 0.00212181 1.08286e-16)
(0.00213357 0.000463562 0)
(0.00221977 0.000597328 1.14706e-16)
(0.00196244 0.000833336 1.778e-16)
(-0.000425039 0.000324073 2.10733e-16)
(-0.00207567 0.000775566 -9.03925e-17)
(0.00204978 0.000808537 0)
(0.00127199 0.000476087 0)
(0.00173903 0.000543277 3.86488e-16)
(-0.00207644 0.000797579 0)
(0.00215308 0.000714205 -1.07228e-16)
(-0.00221 0.000588402 1.26092e-16)
(-0.00208878 0.000794993 9.58114e-17)
(0.00197888 0.000794547 -1.95166e-16)
(-0.00231699 0.000875261 -1.35978e-16)
(-0.0019332 0.000805024 1.84897e-16)
(-0.00227377 0.00104652 1.01007e-16)
(-0.00155151 0.000604004 -1.08942e-16)
(-0.00209486 0.000791072 0)
(-0.00208505 0.000793339 0)
(-0.000117287 0.00104425 0)
(-1.80948e-05 0.0027081 -2.50978e-16)
(-0.00223407 0.000797296 0)
(-0.00210972 0.00102876 -8.72297e-17)
(0.00201728 0.000790602 3.76161e-16)
(0.0019406 0.000821494 -1.11175e-16)
(0.00201892 0.00073019 3.79526e-16)
(0.00204586 0.00086604 -5.49149e-17)
(0.00203413 0.00077303 -5.54949e-21)
(-0.00206718 0.000832009 -4.91286e-17)
(-0.00207382 0.000802905 -9.63661e-17)
(-0.000168583 0.00320323 5.97383e-18)
(-0.00208045 0.000800113 -1.95295e-16)
(-0.00206716 0.000863129 -5.15027e-17)
(0.00194563 0.000842819 0)
(-0.00208402 0.000799238 -9.75863e-17)
(-0.00219174 0.000803841 -3.58916e-16)
(-0.00201599 0.000906657 -1.39393e-17)
(-0.00209582 0.000784589 0)
(-0.00211222 0.000694068 4.83493e-17)
(-0.00208429 0.000771958 -9.87661e-17)
(0.0022148 0.000976261 -2.08721e-16)
(-0.00206924 0.000819236 -9.9471e-17)
(0.000271554 0.00306377 6.9654e-18)
(0.00198682 0.00072669 2.4431e-17)
(-5.92118e-05 0.00304274 -1.98857e-16)
(-0.00230999 0.000929691 2.82348e-16)
(-0.0020147 0.000679544 -3.98526e-16)
(0.00203367 0.000785086 1.03053e-16)
(-0.00231449 0.00093027 1.25935e-16)
(0.000312605 0.00159723 8.11327e-17)
(-0.00206229 0.000817032 1.97979e-16)
(0.00197319 0.000682093 1.7667e-16)
(-2.25656e-05 0.00298643 0)
(-5.85156e-05 0.00268608 -2.83922e-16)
(-0.00207065 0.000854735 -1.57227e-16)
(0.00200063 0.000683447 -5.19581e-17)
(-2.34031e-05 0.00297861 7.90263e-19)
(0.0024331 0.000966658 9.76699e-17)
(-0.00192092 0.000765047 2.95295e-16)
(-0.00209035 0.000794085 -5.09881e-17)
(-0.00211449 0.000758722 0)
(-0.00217687 0.000809419 2.29029e-16)
(0.00200658 0.000810014 -2.02294e-16)
(-0.00207404 0.000805307 -9.68006e-17)
(0.00201205 0.000787666 0)
(-4.85836e-06 0.00296182 -2.0187e-16)
(-0.0021762 0.000841245 1.20768e-16)
(0.00233059 0.00209397 -3.66321e-16)
(0.00205912 0.000782636 0)
(-1.32574e-05 0.00296243 0)
(0.00211491 0.000849363 5.95729e-21)
(8.39251e-06 0.00295413 -2.02108e-16)
(4.65367e-06 0.00295967 4.01898e-16)
(-0.0020674 0.000810585 4.98488e-17)
(-0.000183864 0.00304868 1.97705e-16)
(-7.92267e-06 0.00295168 0)
(-1.91667e-05 0.00296575 2.01153e-16)
(-0.00206957 0.000806694 0)
(0.00237219 0.0013444 0)
(9.31892e-06 0.00295793 0)
(-4.64148e-06 0.00295743 -2.01436e-16)
(-0.00206189 0.000843922 0)
(-1.04074e-05 0.0029598 4.05267e-16)
(-0.00208567 0.000789303 0)
(-4.39784e-06 0.00295927 -2.02417e-16)
(-0.00207098 0.000806305 -2.9318e-16)
(-5.27028e-06 0.00294979 0)
(-0.00205049 0.00084913 9.67019e-17)
(-0.000929576 0.003389 -4.71359e-17)
(0.00215742 0.000949989 2.50254e-16)
(0.00218304 0.000822067 0)
(5.91014e-07 0.0029556 1.45272e-20)
(-1.15095e-05 0.00296115 -1.99387e-16)
(-0.00209838 0.000705347 -8.5174e-17)
(0.00198241 0.000885489 -2.05742e-16)
(0.00182048 0.000735627 0)
(0.00202243 0.000773654 3.1026e-16)
(-2.23691e-06 0.00295795 2.01996e-16)
(-0.00206116 0.000810297 0)
(-7.26727e-05 0.00299097 2.00561e-16)
(-2.04665e-06 0.00295144 0)
(-5.13247e-06 0.00295587 -2.04877e-16)
(-0.00207876 0.000810145 0)
(0.00203876 0.000849372 1.95264e-16)
(-0.00208517 0.000797558 2.68355e-21)
(8.05152e-07 0.0029506 2.02882e-16)
(0.00206662 0.000756167 -4.19346e-16)
(0.000297527 0.00177814 0)
(-1.05743e-05 0.00296088 0)
(0.00229238 0.00105856 1.46623e-16)
(0.00200624 0.000705178 0)
(-0.000232804 0.00317201 0)
(-0.00208123 0.000788181 -3.52287e-16)
(-7.93143e-05 0.00302944 0)
(-0.00207311 0.000804584 9.75562e-17)
(-0.00175874 0.00150045 -5.25369e-17)
(-0.0020635 0.000844671 2.0111e-16)
(7.24009e-07 0.00295125 -4.04619e-16)
(-0.00212127 0.000766195 5.41567e-17)
(-0.00204841 0.000848562 1.92962e-16)
(-3.6461e-06 0.00295452 0)
(-7.33653e-06 0.00295012 -1.98246e-16)
(0.00192827 0.000663438 0)
(9.12014e-07 0.00295646 -2.04203e-16)
(1.67183e-06 0.00295505 0)
(-0.000138151 0.0030722 2.01273e-16)
(1.62038e-05 0.00269572 -2.27201e-16)
(-0.00198118 0.000829532 1.17404e-16)
(-4.29068e-05 0.00299628 9.81716e-20)
(0.00146933 0.000432683 0)
(-0.00211294 0.000776696 7.99843e-17)
(-0.00198866 0.000856137 4.68849e-17)
(6.09982e-06 0.0029489 4.05009e-16)
(-1.17281e-05 0.00295973 2.01598e-16)
(-0.00211893 0.000803651 -4.65993e-16)
(1.86521e-06 0.00295235 2.0268e-16)
(0.00188743 0.000617679 6.77902e-21)
(-1.49438e-05 0.00295395 2.00599e-16)
(-0.00209043 0.000793912 0)
(-0.0020615 0.000826797 5.12174e-17)
(-1.64945e-06 0.00295502 -1.45942e-20)
(0.00200843 0.000972267 2.10078e-16)
(-0.00208136 0.000810062 -1.0284e-16)
(-0.00205168 0.000843713 -8.98986e-17)
(-7.30032e-06 0.00295868 -2.01521e-16)
(0.00202173 0.000791869 3.5159e-18)
(-5.67052e-07 0.00295624 -1.45982e-20)
(-0.00209422 0.000791798 4.80859e-17)
(9.56852e-06 0.00295103 0)
(-0.00208443 0.000788382 0)
(-1.70957e-05 0.00295864 -2.01463e-16)
(1.48526e-06 0.0029543 2.02262e-16)
(0.00202324 0.000837325 -2.45276e-17)
(-0.00212757 0.000725076 2.19717e-16)
(-1.53364e-05 0.00295434 1.99769e-16)
(3.71379e-06 0.00295076 0)
(-0.00206649 0.000837802 0)
(-0.00205645 0.000845713 1.53401e-16)
(-0.00212081 0.000680923 0)
(-0.000104513 0.00183382 -1.08308e-16)
(-5.69355e-07 0.00295595 2.02707e-16)
(-0.00205175 0.000842545 -1.45371e-16)
(-0.00207074 0.000802764 0)
(-0.00205924 0.000784727 5.30121e-17)
(-2.7836e-05 0.0029647 1.97004e-16)
(1.97364e-07 0.00295172 -1.46718e-20)
(-0.00207364 0.000793296 -5.14121e-17)
(0.0012012 0.000144694 -2.18992e-16)
(-2.62869e-05 0.0029711 -2.00423e-16)
(-8.29438e-06 0.00295923 2.02101e-16)
(4.24557e-06 0.00295181 2.02978e-16)
(-2.55131e-07 0.00296086 -2.00153e-16)
(0.00246637 0.00124809 -1.92045e-16)
(-1.72849e-05 0.00295445 -2.01106e-16)
(-0.00208769 0.000784989 0)
(-0.00202432 0.000726808 0)
(0.00194545 0.000739018 0)
(-4.50531e-06 0.00295152 -2.03567e-16)
(-0.00204906 0.00084845 2.48139e-16)
(0.00199888 0.000745889 -1.57149e-16)
(-0.00198737 0.000803623 2.7135e-16)
(-0.00207372 0.000803744 -1.96914e-16)
(-0.00207663 0.000802099 -1.01261e-16)
(-0.00223763 0.00105361 -1.00453e-16)
(-8.23019e-06 0.002954 -4.05787e-16)
(8.04485e-06 0.00295159 8.46294e-20)
(-0.00209571 0.00085733 -5.80039e-17)
(-0.00207772 0.0008347 4.59953e-17)
(-0.00207705 0.000807859 -5.05261e-17)
(1.17675e-05 0.0029552 -2.02613e-16)
(2.54963e-06 0.00295156 4.10219e-16)
(-1.43123e-05 0.00295472 -2.02958e-16)
(2.55395e-06 0.00295473 -7.95355e-19)
(-0.00207116 0.000822555 4.91289e-17)
(-9.94512e-06 0.00295315 0)
(1.40109e-05 0.00295372 -2.03781e-16)
(9.66116e-06 0.00295051 2.02747e-16)
(1.20798e-05 0.00295534 3.5054e-20)
(-0.00208025 0.000778776 1.02068e-16)
(-1.66873e-05 0.00297118 0)
(-0.00208008 0.000791075 -2.00614e-16)
(-0.00211647 0.000768517 0)
(0.00203482 0.000779563 -2.22456e-16)
(-1.09736e-06 0.00295345 -1.57902e-18)
(0.00195709 0.000776575 1.97901e-16)
(1.84254e-06 0.00295459 -1.45319e-20)
(-0.00018172 0.00303144 0)
(-0.000120441 0.00299254 -1.99268e-16)
(-0.00207973 0.0007941 0)
(-0.00209701 0.00079122 -9.8655e-17)
(2.00304e-05 0.00295002 0)
(-0.00206245 0.000800513 -2.14071e-16)
(-0.00207441 0.000813428 -1.06353e-16)
(0.00202433 0.000804187 2.13739e-16)
(1.14238e-06 0.00295126 -2.03081e-16)
(-1.6677e-05 0.00295482 -2.03157e-16)
(-0.00208378 0.000833833 5.5553e-17)
(-3.15196e-06 0.00295497 -2.00304e-16)
(-0.00205408 0.000780969 3.11582e-16)
(-1.34279e-05 0.00295258 -2.02287e-16)
(4.23381e-06 0.00295419 -1.456e-20)
(-0.00204951 0.000858739 -2.36556e-16)
(-1.81996e-05 0.00295416 2.00626e-16)
(0.00203881 0.000771472 0)
(-0.00207164 0.000810053 -5.02505e-17)
(-1.10106e-06 0.00295281 3.18887e-18)
(-0.00208341 0.000779243 1.00774e-16)
(-4.84099e-07 0.0029521 -1.60071e-18)
(-0.00207226 0.000795913 5.04599e-17)
(-0.00195382 0.000732665 0)
(7.71678e-06 0.00295411 -1.46308e-20)
(-0.00226115 0.00095245 3.00913e-16)
(1.7749e-06 0.00295567 2.04467e-16)
(0.00186622 0.000959533 -5.87769e-17)
(-0.00196623 0.000886242 1.95203e-16)
(-6.48128e-07 0.00295384 2.04613e-16)
(0.00151076 0.000592458 2.15024e-16)
(-3.86034e-06 0.00295386 2.03318e-16)
(2.24641e-06 0.00295498 3.17265e-18)
(0.00173245 0.000632161 2.2723e-16)
(0.00185927 0.000647273 -2.12538e-16)
(0.00211306 0.000840813 0)
(-0.00220067 0.000896294 0)
(-1.67727e-05 0.00295405 -1.59105e-18)
(0.00192331 0.000728177 2.79968e-16)
(-1.61573e-05 0.00295263 -1.5797e-18)
(-0.00207686 0.00080346 -9.82417e-17)
(0.00188228 0.000654003 0)
(1.52789e-05 0.00295268 -4.05549e-16)
(2.49024e-06 0.0029532 -4.08064e-16)
(-0.00206542 0.000832388 0)
(-0.00207969 0.000777432 0)
(1.70581e-06 0.00295547 -4.05515e-16)
(-5.91771e-05 0.00298368 0)
(-0.00206771 0.000848407 -1.95478e-16)
(-3.97666e-05 0.00297021 -4.00509e-16)
(-0.00188744 0.000679033 0)
(0.00212721 0.000697339 5.24841e-17)
(2.29545e-07 0.00295017 -1.60738e-18)
(6.67939e-06 0.00295644 2.04308e-16)
(0.00161607 0.00100661 -7.03671e-18)
(7.84695e-07 0.00295317 -2.0479e-16)
(-0.00209183 0.000769851 1.57436e-16)
(-0.00218243 0.00101446 1.38981e-16)
(-1.80211e-05 0.00295358 2.01865e-16)
(-0.00208395 0.000778566 1.45747e-16)
(-3.21903e-06 0.00295455 2.04811e-16)
(-1.66997e-05 0.00295299 -2.02603e-16)
(-1.88837e-05 0.00295313 -2.01905e-16)
(-0.00205738 0.000836477 0)
(-0.00208097 0.000781781 -4.98678e-17)
(-2.08785e-06 0.00295264 -7.98774e-19)
(1.72406e-05 0.00295371 0)
(-0.00205462 0.000832735 1.98687e-16)
(-0.00207127 0.000781829 0)
(2.67186e-06 0.00295176 -2.03399e-16)
(-1.42165e-05 0.0029628 3.16228e-18)
(0.00202068 0.000785311 -2.14733e-16)
(2.6459e-06 0.00295362 -4.10848e-16)
(-0.00223038 0.000884105 3.41572e-16)
(-1.07815e-06 0.00295338 0)
(-9.81252e-07 0.00295544 2.02758e-16)
(-5.65484e-07 0.00295372 0)
(-1.54193e-07 0.00295463 2.02818e-16)
(2.14135e-06 0.00295294 -2.02305e-16)
(0.0017502 0.000675616 1.21376e-16)
(7.93247e-07 0.00295243 2.02447e-16)
(1.35028e-06 0.0029588 -1.46564e-20)
(-3.91035e-08 0.00295334 2.048e-16)
(-1.95742e-05 0.00295373 4.04643e-16)
(-0.00208272 0.00079526 0)
(-0.00208015 0.000802592 -5.25272e-17)
(-1.6993e-05 0.00295337 0)
(-3.88333e-07 0.0029535 0)
(-1.95787e-06 0.00295233 -2.0661e-16)
(1.73153e-05 0.00295463 2.03097e-16)
(1.42935e-05 0.00295492 2.03862e-16)
(-0.00207642 0.000806778 2.57695e-16)
(1.53851e-05 0.00295329 2.03293e-16)
(-1.14797e-06 0.0029551 -2.04791e-16)
(-2.83258e-06 0.00295359 0)
(-7.71938e-07 0.00295336 -1.47052e-20)
(-0.00208074 0.000801917 1.00375e-16)
(1.71129e-05 0.00295364 0)
(1.61161e-05 0.0029528 2.03435e-16)
(-6.90975e-06 0.00295912 -2.05255e-16)
(-0.00208599 0.000778355 0)
(-3.03676e-08 0.00295343 0)
(0.00203986 0.000784592 -2.1323e-16)
(-3.71764e-07 0.00295538 1.59878e-18)
(-2.8724e-07 0.00295602 -3.98535e-19)
(-1.40808e-05 0.00295093 -7.9206e-19)
(-1.89039e-05 0.00295293 1.46007e-20)
(-1.5301e-05 0.00295191 7.92708e-19)
(-0.00206647 0.000888264 -1.24094e-16)
(-1.82403e-05 0.00295168 2.03609e-16)
(9.84044e-06 0.00295176 0)
(-1.78598e-05 0.00295205 2.02161e-16)
(-1.80727e-05 0.00295261 -2.02507e-16)
(-1.90465e-05 0.00295379 -2.03447e-16)
(-0.00250919 0.00205203 -3.08459e-16)
(-0.000478412 0.000593402 -3.84298e-16)
(1.76087e-05 0.00295409 -2.03712e-16)
(-1.7683e-06 0.00295472 -2.0307e-16)
(2.05824e-07 0.00295539 -2.03024e-16)
(1.58001e-05 0.00295274 2.03496e-16)
(-0.00209088 0.00078874 -2.02472e-16)
(-2.0268e-05 0.00295222 2.02139e-16)
(-1.69148e-06 0.00295392 -2.02689e-16)
(-1.34338e-05 0.00295956 -4.03164e-16)
(-1.56077e-06 0.00295293 -1.60328e-18)
(1.88026e-05 0.00295277 2.02727e-16)
(0.00202411 0.000776566 2.13264e-16)
(-6.32213e-06 0.00295477 -2.02728e-16)
(1.15944e-06 0.00295334 -1.45891e-20)
(0.00215605 0.000891276 -2.63004e-16)
(-6.33097e-07 0.00295324 0)
(-1.34145e-06 0.00295333 0)
(-2.01299e-05 0.00295289 -4.0625e-16)
(-0.0020803 0.000798419 1.00716e-16)
(3.74261e-07 0.00295163 -4.00489e-19)
(-2.3375e-05 0.00295387 2.12276e-19)
(0.00203846 0.000750333 1.41756e-17)
(-2.14915e-05 0.00295518 2.03074e-16)
(2.1285e-05 0.00295399 2.03047e-16)
(1.9469e-05 0.00295356 -2.02899e-16)
(4.90727e-06 0.0029532 -2.0347e-16)
(-2.28348e-05 0.00295414 1.45938e-20)
(-0.00216299 0.000774879 -2.15473e-16)
(-0.00178909 0.000698622 2.65477e-16)
(-1.94213e-06 0.00295054 -1.46739e-20)
(-1.26748e-06 0.00295457 -2.02588e-16)
(-0.00206151 0.000836568 5.11234e-17)
(1.87305e-06 0.00295197 -1.47054e-20)
(-2.1055e-05 0.002952 8.05143e-19)
(2.11607e-05 0.0029529 -4.06039e-16)
(9.77618e-06 0.00295015 2.03832e-16)
(1.79978e-05 0.00295241 -2.0383e-16)
(1.7695e-05 0.00295305 -2.03824e-16)
(2.11265e-05 0.0029533 2.03124e-16)
(1.76583e-05 0.00295251 1.98677e-19)
(2.09681e-05 0.00295336 0)
(0.00203977 0.000771253 0)
(-1.70955e-05 0.00295352 2.04487e-16)
(-1.39329e-06 0.0029566 0)
(3.85804e-06 0.0029554 2.03735e-16)
(2.10134e-05 0.00295328 0)
(2.09258e-05 0.00295351 2.03192e-16)
(2.11931e-05 0.00295308 -9.91904e-20)
(2.17528e-06 0.00295567 1.99362e-16)
(1.90503e-05 0.00295452 0)
(-5.60768e-06 0.00295627 0)
(-1.77845e-05 0.00295573 -2.04707e-16)
(-0.00207639 0.000801049 -2.47813e-21)
(1.87233e-05 0.00295317 0)
(-4.34515e-05 0.00300383 0)
(1.83905e-05 0.0029532 0)
(-0.00202621 0.000773329 1.57169e-16)
(1.44158e-06 0.00295489 -2.02841e-16)
(-1.32627e-05 0.00295968 2.04679e-16)
(1.92315e-05 0.00295487 -9.9404e-20)
(-0.00203928 0.000848958 5.56763e-17)
(-0.00206446 0.000838811 -5.08317e-17)
(1.68062e-05 0.0029544 -2.03818e-16)
(-5.10913e-06 0.00294864 0)
(-7.02967e-07 0.00295835 -2.03899e-16)
(1.70563e-05 0.00295457 1.46454e-20)
(2.11251e-05 0.00295296 -2.03658e-16)
(-1.92038e-06 0.00294641 4.05038e-16)
(0.00195949 0.00068381 -3.65593e-16)
(0.00203136 0.000784243 -4.30917e-16)
(-2.99154e-06 0.00295431 4.07248e-16)
(0.00200811 0.000793021 0)
(1.66495e-05 0.00295455 0)
(2.14732e-05 0.00295245 -3.96994e-19)
(-0.00211047 0.000834851 -1.84021e-16)
(-0.00207272 0.000846398 1.05905e-16)
(1.30629e-06 0.00295221 -1.00203e-19)
(1.68101e-05 0.00295479 2.0387e-16)
(1.78295e-06 0.00295336 -2.03129e-16)
(-0.00189547 0.00181022 1.02776e-16)
(1.59242e-05 0.00295447 7.96841e-19)
(-2.05992e-05 0.00295512 2.033e-16)
(-1.70867e-06 0.0029573 2.0407e-16)
(-0.00236603 0.00121084 -2.01499e-16)
(1.64456e-05 0.00295537 0)
(-1.20561e-06 0.0029537 4.01571e-19)
(-4.55368e-06 0.0029564 -2.03104e-16)
(-0.0020811 0.000789066 0)
(0.00208511 0.000569308 3.85784e-16)
(-0.00204763 0.000847512 5.36677e-17)
(1.57366e-05 0.00295475 -7.96972e-19)
(2.21961e-06 0.00295434 -2.03828e-16)
(-1.83317e-05 0.00295163 -2.03655e-16)
(-0.00207225 0.000831831 3.04095e-16)
(1.57784e-05 0.00295574 -2.04088e-16)
(-2.40172e-05 0.00295275 7.93015e-19)
(1.25825e-06 0.00295215 2.0059e-19)
(1.95819e-05 0.00295285 0)
(-5.34014e-07 0.00295793 0)
(1.98489e-05 0.00295264 0)
(2.08331e-06 0.00295427 0)
(-0.00207574 0.000788691 -5.05805e-17)
(-2.16122e-05 0.0029517 0)
(-1.44292e-06 0.00295354 0)
(0.00219543 0.00102007 1.57509e-16)
(1.32974e-06 0.0029544 0)
(-0.000118882 0.00307599 0)
(-5.73798e-07 0.00295777 4.08007e-16)
(1.06032e-06 0.00295218 0)
(0.0020202 0.00074463 -4.81144e-17)
(0.00203329 0.000789425 0)
(0.00184364 0.000888507 1.05923e-16)
(0.00199647 0.00072425 -2.06198e-16)
(2.3077e-06 0.00295354 -4.07222e-16)
(-0.00188374 0.000813014 0)
(9.32163e-07 0.00295445 -1.9918e-19)
(-0.00206166 0.000833347 -9.91579e-17)
(2.20196e-05 0.00295302 0)
(0.00100947 0.00115408 0)
(3.72022e-07 0.00295364 -4.02029e-19)
(1.92667e-06 0.00296089 -1.26934e-17)
(0.000758718 0.00181948 -7.05263e-18)
(1.95962e-05 0.00295126 0)
(2.36366e-06 0.00295353 0)
(-0.00207087 0.000813729 0)
(-9.73219e-07 0.00295452 4.06408e-16)
(-8.62469e-07 0.00295526 0)
(0.00202891 0.000778416 3.89281e-21)
(0.000575802 0.00170356 0)
(-1.00219e-07 0.00295385 4.14442e-19)
(-2.47209e-07 0.00295526 -2.04145e-16)
(1.48904e-06 0.00295316 -2.03125e-16)
(1.22288e-06 0.00295237 -4.02703e-19)
(5.45027e-07 0.0029527 0)
(1.13418e-06 0.00295643 1.47215e-20)
(0.00207335 0.000740982 0)
(-0.00207782 0.000812693 0)