/*--------------------------------*- C++ -*----------------------------------*\
  =========                 |
  \\      /  F ield         | OpenFOAM: The Open Source CFD Toolbox
   \\    /   O peration     | Website:  https://openfoam.org
    \\  /    A nd           | Version:  12
     \\/     M anipulation  |
\*---------------------------------------------------------------------------*/
FoamFile
{
    format      ascii;
    class       surfaceScalarField;
    location    "0.18";
    object      phi;
}
// * * * * * * * * * * * * * * * * * * * * * * * * * * * * * * * * * * * * * //

dimensions      [0 3 -1 0 0 0 0];

internalField   nonuniform List<scalar> 
6438
(
-2.93311e-08
3.65219e-06
-3.62286e-06
-3.19075e-08
4.24276e-06
-4.21085e-06
-3.97973e-06
-6.75151e-07
4.65488e-06
3.7759e-06
-4.14417e-06
3.68264e-07
5.80177e-06
-4.53241e-06
-1.26936e-06
1.31551e-06
4.48625e-06
-4.52339e-06
5.43656e-07
-3.92113e-06
3.88922e-06
4.23669e-06
-5.05768e-06
8.20988e-07
3.93803e-06
-4.6181e-06
6.80069e-07
-3.80806e-06
4.63205e-06
-8.23992e-07
9.13904e-07
-4.17366e-06
3.25976e-06
-4.71621e-06
9.08148e-07
3.61896e-06
1.66185e-06
-5.28082e-06
3.40006e-06
-3.42939e-06
-1.92264e-07
3.98511e-06
-3.79285e-06
-5.02063e-06
4.869e-06
1.51631e-07
-3.80128e-06
4.6165e-06
-8.1522e-07
-4.71369e-06
9.12408e-07
1.49628e-06
3.16245e-06
-4.65873e-06
-1.08994e-06
-7.12572e-07
1.80251e-06
-2.32071e-07
4.17364e-06
-3.94157e-06
-3.87121e-06
-6.26955e-07
4.49816e-06
-4.73962e-06
2.07889e-06
2.66073e-06
-4.11186e-06
3.87979e-06
-3.65166e-06
4.43878e-06
-7.8712e-07
-4.46599e-06
5.94784e-07
4.23151e-06
-3.31761e-06
-3.84371e-06
-7.20193e-07
4.5639e-06
-4.65005e-06
9.98395e-07
3.56079e-06
-4.47587e-06
9.15083e-07
1.98946e-08
-4.35806e-06
4.33817e-06
4.26505e-06
-4.29013e-06
2.50794e-08
-4.22558e-06
7.10335e-07
3.51525e-06
-5.70615e-06
9.23338e-07
4.78281e-06
4.01259e-06
-3.99269e-06
4.0488e-06
-2.72893e-07
2.62678e-06
3.67911e-06
-6.30589e-06
-1.30047e-06
4.91943e-06
-3.76863e-06
4.14036e-06
-3.71727e-07
-4.36645e-06
4.32652e-06
3.99394e-08
-1.81373e-06
3.31e-06
3.90402e-06
3.40112e-08
-4.69309e-06
4.59755e-06
9.55378e-08
4.20385e-06
-6.43063e-07
-3.15972e-06
2.96745e-06
-5.45527e-06
9.22857e-07
4.14773e-06
3.99141e-07
-4.54687e-06
-3.22133e-06
-1.00425e-06
-5.91892e-07
-3.8797e-06
4.40193e-06
-5.2223e-07
-2.88842e-06
4.1695e-06
-1.28108e-06
4.18616e-06
-4.18616e-06
1.31543e-06
3.17464e-06
4.17574e-07
-3.59221e-06
1.86341e-06
9.05664e-07
-2.76907e-06
3.54512e-06
7.45499e-07
-4.29062e-06
3.42303e-06
-1.34414e-06
-1.98483e-06
-3.47044e-06
-4.13619e-08
3.69062e-06
-3.64925e-06
-4.55185e-06
4.55185e-06
-4.71526e-06
4.76358e-06
-4.83197e-08
1.90191e-07
3.50585e-06
-3.69604e-06
1.30629e-08
-4.29529e-06
4.28223e-06
3.98599e-06
-3.97293e-06
-4.3463e-06
5.02595e-07
-4.35763e-06
-3.35459e-07
-3.74835e-06
4.11951e-06
-3.71166e-07
4.14402e-07
3.5884e-06
-4.00281e-06
-4.40703e-06
4.23838e-06
1.68646e-07
4.29606e-06
-4.29606e-06
3.99268e-06
2.44012e-07
-2.62325e-06
-1.99485e-06
3.74154e-06
7.88664e-07
-4.5302e-06
-3.6705e-06
-6.95951e-07
3.26046e-06
2.51955e-06
-5.78001e-06
-5.0498e-06
3.23607e-06
-3.2234e-06
-1.8264e-06
4.44824e-06
-7.06701e-07
2.65075e-06
-7.8734e-07
3.60208e-06
4.11462e-07
-4.01354e-06
-4.44144e-06
-2.73823e-07
-6.28543e-07
-1.08118e-06
-3.47067e-06
4.81461e-06
-4.81461e-06
-3.18323e-06
-1.2238e-06
-2.88527e-07
-5.41762e-06
-4.15419e-06
4.13747e-06
1.67237e-08
1.49516e-07
-4.2078e-06
4.05828e-06
-4.62649e-07
4.06473e-06
4.15876e-06
1.06283e-07
-4.34409e-06
-6.76548e-07
-4.38625e-06
4.49796e-06
-1.11709e-07
4.57918e-06
-2.56275e-06
-2.01644e-06
4.10779e-06
-3.95827e-06
8.41866e-08
4.60759e-06
-2.34491e-06
-2.26268e-06
2.62104e-06
1.95814e-06
4.2281e-06
-4.2281e-06
-3.24304e-06
4.6523e-06
-1.40926e-06
-4.07548e-06
1.95784e-07
-5.57548e-07
-3.30072e-06
3.85827e-06
-3.8199e-06
1.49393e-07
-4.0931e-06
8.50062e-07
3.5314e-06
7.78143e-07
-4.30954e-06
-2.4739e-07
3.77879e-06
-3.68838e-06
4.26142e-06
-5.73042e-07
-3.9189e-06
1.50266e-07
2.7039e-06
1.90369e-06
4.08233e-06
-8.22574e-07
1.7548e-07
4.01068e-06
-3.52329e-06
-2.9661e-07
3.68349e-06
7.83775e-07
-4.46726e-06
-2.03658e-06
-1.75689e-06
3.79346e-06
2.68153e-06
-3.38708e-07
-2.34282e-06
-4.35806e-06
8.84499e-07
4.36841e-06
-5.25291e-06
-2.02528e-06
9.3534e-07
4.35837e-06
8.04048e-08
4.72604e-06
-2.44522e-06
-2.28082e-06
1.58205e-06
3.14399e-06
4.41085e-06
-7.27362e-07
5.38148e-06
-2.75471e-06
-3.98765e-06
1.15799e-08
3.97607e-06
-5.70296e-06
5.81843e-07
5.12111e-06
-6.53943e-08
-3.9592e-06
4.02459e-06
4.3547e-06
2.42847e-07
-3.35907e-06
3.31771e-06
-4.00764e-06
4.08815e-06
-8.051e-08
4.05807e-06
-4.12347e-06
4.18771e-06
-4.18771e-06
4.12373e-06
1.1903e-07
4.13159e-06
-9.56956e-07
4.07552e-06
-3.88533e-06
-3.5904e-06
3.03285e-06
3.69742e-08
3.95678e-06
-3.99375e-06
4.65501e-06
-3.26198e-06
-1.39304e-06
-4.29529e-06
-6.19994e-08
4.83006e-08
-3.96943e-06
-3.97796e-06
2.2961e-07
4.56893e-08
3.9669e-06
3.83899e-06
-3.42459e-06
-3.9591e-06
2.70716e-07
4.01657e-06
-1.1255e-07
-1.43358e-07
3.49548e-06
-3.35212e-06
2.751e-06
1.90402e-06
-4.11656e-06
8.84182e-07
3.23238e-06
4.19673e-06
-2.72354e-08
-5.54982e-06
5.04447e-07
5.04537e-06
-5.61294e-08
-3.93835e-06
3.99448e-06
2.61779e-06
6.37392e-08
2.50525e-07
3.94621e-06
3.90524e-06
3.26275e-07
4.03445e-06
-4.09058e-06
-4.20432e-06
-1.39765e-07
4.28865e-06
-4.60831e-06
3.19653e-07
-3.8342e-06
-1.53443e-07
-4.66649e-06
2.02299e-06
2.6435e-06
7.46774e-10
4.03414e-06
1.39495e-07
-3.79714e-06
4.41581e-06
-6.18666e-07
-4.1847e-06
3.60497e-06
5.79729e-07
-5.65934e-07
1.46273e-06
-8.96798e-07
-1.31221e-06
-3.33785e-06
-4.2078e-06
-3.3179e-08
4.01917e-06
1.23264e-06
3.41966e-06
-6.71957e-08
-4.09237e-06
-1.94913e-08
-8.67337e-08
-4.4736e-06
3.78011e-06
6.93494e-07
-2.62517e-07
3.33496e-06
6.57716e-07
6.54037e-06
-2.86126e-06
-1.38388e-06
-3.32981e-06
4.10219e-06
5.6572e-08
-3.52164e-06
1.48507e-06
-1.5813e-06
-2.4962e-06
4.07751e-06
-1.41196e-06
-3.30425e-06
-2.29626e-06
5.55672e-06
-4.23116e-06
1.38788e-07
-3.9943e-06
4.00955e-06
-1.52433e-08
-3.29941e-06
3.15606e-06
-4.80375e-08
-3.91475e-06
3.96279e-06
-4.30454e-06
7.33849e-08
3.58949e-06
-4.27115e-06
6.81657e-07
3.99931e-06
-4.04734e-06
3.57394e-06
-1.35295e-06
-2.22099e-06
-5.40603e-06
1.91444e-06
3.49159e-06
3.66443e-06
3.5214e-07
3.02656e-06
1.84244e-06
8.84075e-07
3.93053e-06
-1.04988e-06
-3.76472e-06
-4.35699e-06
4.31795e-06
3.90389e-08
-4.34501e-06
-1.19842e-08
-4.32309e-06
-2.19139e-08
1.34076e-08
1.12509e-06
-6.29345e-06
5.16836e-06
-4.67289e-06
5.55739e-06
3.68993e-06
-3.65295e-06
3.94321e-06
1.64579e-07
3.21468e-07
3.25247e-06
-3.9592e-06
-3.58953e-06
3.5729e-06
4.44927e-07
-4.01783e-06
-2.00877e-08
-8.52621e-07
6.28224e-06
-5.42962e-06
5.9591e-06
-4.29724e-06
-1.80837e-06
2.71403e-06
-1.14666e-06
-3.51983e-06
-3.12648e-06
-2.27955e-06
-3.95802e-06
-2.46305e-07
-3.98597e-06
3.98535e-06
6.25554e-10
-6.29137e-07
3.74142e-06
-3.11228e-06
-4.28027e-06
4.31042e-06
-3.01443e-08
-4.23549e-06
-4.47841e-08
-5.44242e-06
3.39657e-07
5.10277e-06
-3.8028e-06
-2.46683e-07
4.04948e-06
4.26484e-06
4.55759e-08
-7.579e-07
-4.66002e-06
1.69906e-06
2.96096e-06
2.65034e-08
-2.46663e-06
-2.19338e-06
-5.82524e-08
-4.3524e-08
-3.89219e-06
3.93571e-06
-4.00226e-06
1.99463e-07
3.61709e-06
4.85101e-07
4.16864e-06
-3.99316e-06
3.96124e-06
-4.00477e-06
3.94472e-06
1.13352e-07
1.93958e-06
4.01952e-06
4.11352e-06
-7.78562e-07
-3.23441e-07
-5.37952e-06
-2.35018e-07
3.25128e-06
-3.01626e-06
-4.21524e-06
-2.02466e-08
-4.2146e-06
-6.39565e-10
4.24817e-06
-4.21779e-06
-3.03805e-08
4.20226e-06
4.59119e-08
-3.93835e-06
9.73174e-07
-1.3363e-06
3.63123e-07
-4.75998e-06
2.78624e-06
1.97374e-06
2.13005e-06
-4.27117e-06
2.14112e-06
-3.7287e-06
-3.46781e-07
-3.97263e-06
3.95294e-06
1.96985e-08
-4.13231e-06
3.9857e-06
1.46611e-07
-3.30071e-07
4.22889e-06
-3.89882e-06
-4.10268e-06
1.00421e-07
-4.55554e-06
5.68063e-06
-4.21958e-07
-3.69461e-06
-4.28297e-06
3.9529e-06
-3.35558e-06
-3.08563e-07
3.66414e-06
-3.14324e-06
4.1753e-06
2.69655e-08
-2.85826e-06
-7.653e-07
8.48465e-07
-8.31648e-08
-3.93045e-08
1.53644e-07
-5.43499e-06
5.28135e-06
-3.04568e-06
-1.4777e-06
-4.23377e-06
4.14769e-06
8.60816e-08
-4.16892e-06
-6.4848e-08
-1.49857e-06
9.32634e-07
3.93747e-06
9.69833e-08
4.2037e-06
-6.97846e-07
4.16523e-06
-4.16064e-06
-4.59158e-09
-1.11626e-08
-3.86216e-06
3.87333e-06
4.36087e-06
-3.12824e-06
-5.25644e-08
4.3217e-06
2.44132e-06
-6.76302e-06
4.28206e-06
-4.28206e-06
6.63427e-07
3.88842e-06
-1.51128e-06
-2.67488e-06
-3.41404e-06
4.11539e-06
-7.01348e-07
-4.54104e-07
-3.67821e-06
3.94131e-06
-3.95247e-06
-3.7746e-06
6.35572e-08
3.71104e-06
7.24292e-07
-3.82568e-06
3.10139e-06
-3.96115e-06
3.91997e-06
4.11724e-08
2.53076e-06
1.83011e-06
-1.23931e-07
-6.41369e-07
-2.38111e-06
-2.37887e-06
-9.12409e-07
-4.22957e-06
4.32429e-07
-3.91475e-06
3.5476e-06
7.41052e-07
-3.29279e-06
-3.69984e-06
3.44257e-07
-3.77488e-06
2.19358e-06
4.28311e-06
-3.48191e-06
-8.01197e-07
7.31374e-07
3.43727e-06
-3.03002e-06
-1.43598e-06
-4.18945e-06
4.18945e-06
4.19182e-06
-4.03129e-06
-1.60534e-07
2.41307e-07
-3.97001e-06
-3.35398e-06
3.79216e-06
-4.38178e-07
-1.32822e-06
6.15652e-07
3.90464e-06
-3.92372e-06
1.90767e-08
4.10349e-06
4.41965e-08
4.145e-06
4.6817e-08
6.26128e-06
-3.99526e-06
-1.07425e-07
-3.50591e-06
2.87677e-06
3.93185e-06
6.74592e-08
4.13288e-06
-4.10985e-06
-2.30247e-08
-3.60484e-08
-5.71438e-08
4.31903e-07
-3.54426e-06
3.11236e-06
-1.23884e-07
-5.42593e-06
1.2978e-06
2.90879e-07
-3.64486e-06
-3.95228e-06
3.89197e-06
6.03164e-08
3.94314e-06
-3.53656e-07
-1.84085e-06
-2.44928e-06
-5.52551e-06
4.09399e-07
-2.21777e-06
-6.5667e-07
1.75581e-08
4.0614e-06
-3.61647e-06
-3.89219e-06
-3.89826e-06
1.0162e-07
3.79664e-06
5.50287e-06
7.79372e-07
3.17297e-06
1.59061e-06
3.83841e-06
-1.70837e-06
4.00773e-06
-2.27619e-07
9.19832e-06
-6.757e-06
-6.29345e-06
-2.01706e-06
-2.16764e-06
-5.10933e-08
4.27395e-06
-4.00443e-06
-2.69529e-07
4.0522e-06
9.28085e-08
4.68449e-07
-3.88249e-06
-2.88117e-06
3.31307e-06
3.927e-06
3.42385e-08
3.08307e-06
1.36517e-06
4.12035e-06
1.53602e-07
4.11715e-06
-4.05815e-06
-5.90013e-08
-1.85531e-06
-2.62056e-06
-1.85796e-07
3.79077e-06
7.05661e-08
-4.36663e-06
3.41367e-06
-2.68937e-06
-5.76546e-08
8.58626e-08
3.33226e-06
-3.61639e-06
2.84127e-07
6.0907e-07
3.50632e-06
5.58539e-06
-5.43175e-06
1.94333e-06
2.4586e-06
-3.94168e-06
3.89579e-06
4.58906e-08
-9.06154e-08
-2.2926e-06
1.25696e-06
1.03563e-06
-4.12522e-08
4.28244e-06
-4.28244e-06
4.84324e-06
-2.80898e-06
-2.03426e-06
-3.54621e-06
-5.97962e-07
2.99268e-06
1.41817e-06
4.09747e-06
2.28798e-08
-3.86216e-06
3.83189e-06
2.44609e-08
-3.85635e-06
3.13645e-06
4.36663e-06
-4.33817e-06
1.10069e-07
5.09766e-06
-4.51581e-06
3.94661e-06
-4.20166e-06
3.9205e-06
-8.86125e-08
3.53917e-06
-3.83001e-06
3.80996e-06
2.00522e-08
1.78501e-07
3.07422e-06
-3.25272e-06
-3.48403e-06
2.87866e-06
-2.60864e-07
3.64331e-06
4.9705e-07
-3.51656e-08
-3.37103e-06
-5.88064e-07
-5.04959e-06
3.19429e-06
6.17763e-09
-3.84038e-06
-4.08892e-06
-1.9405e-07
5.47556e-06
-2.956e-06
3.93242e-08
-7.08265e-07
4.35451e-06
-3.64624e-06
-1.86062e-06
-4.31975e-07
3.81473e-06
-3.85554e-06
4.08079e-08
-3.94661e-06
3.91563e-06
1.69831e-06
2.42489e-06
-4.12319e-06
4.10255e-06
-7.70285e-07
3.40272e-07
3.64484e-06
4.02334e-06
3.92465e-07
4.39213e-07
5.33961e-07
-4.28223e-06
9.45176e-08
-3.39844e-06
3.86689e-06
-1.96889e-06
2.37829e-06
3.62916e-07
-3.57069e-06
3.20777e-06
-2.92992e-08
7.42277e-08
-3.56084e-06
-4.05218e-06
3.97771e-06
7.44714e-08
-3.88633e-06
4.0442e-07
2.53814e-06
2.3051e-06
-2.18758e-06
4.48397e-06
-2.29639e-06
4.49484e-06
-4.19599e-06
-2.98844e-07
1.12757e-07
2.7659e-06
-3.8571e-06
-4.116e-08
3.91486e-06
5.63724e-09
1.93494e-06
-6.77981e-07
4.98302e-06
-4.47858e-06
3.57005e-06
5.49465e-07
2.24465e-07
-3.97451e-06
6.03476e-07
6.01317e-08
-3.45857e-06
4.43778e-06
-3.58772e-06
3.61825e-06
-2.20159e-07
-3.44478e-06
3.66494e-06
-3.89599e-06
4.05754e-06
-4.79935e-08
-5.9023e-06
4.72672e-07
-2.52808e-08
3.82203e-06
7.37628e-08
-3.60772e-06
-3.96056e-06
3.94427e-06
1.62892e-08
4.74354e-06
-2.75644e-06
-1.9871e-06
-3.32334e-06
-2.98789e-07
3.62213e-06
-8.85628e-09
-3.91524e-06
8.42114e-08
-4.23928e-07
4.18321e-06
-3.75929e-06
-3.83476e-06
3.85384e-06
-5.56631e-06
-8.12057e-07
-5.38361e-06
5.24858e-06
1.35032e-07
3.072e-06
1.56005e-06
3.59511e-06
3.22892e-07
-3.918e-06
3.82123e-06
-1.56806e-07
3.08021e-06
1.53629e-06
-2.72939e-06
8.68766e-07
-3.86319e-06
3.35532e-06
-3.81797e-06
-5.18613e-06
5.16735e-06
1.8786e-08
4.68293e-06
-3.7596e-06
3.8216e-06
-1.1648e-08
2.35082e-07
-3.56407e-06
3.32899e-06
-5.76168e-08
-5.12851e-06
4.63091e-06
-4.63091e-06
-2.10854e-06
3.97345e-06
-1.86491e-06
-3.82414e-06
3.82414e-06
3.91161e-06
-3.45794e-06
-4.53672e-07
3.63445e-06
8.63503e-07
4.07501e-06
-3.34363e-06
4.03034e-06
-4.49868e-08
-3.15396e-06
-5.05135e-07
3.65909e-06
-5.12303e-06
5.1405e-06
-1.74678e-08
4.72992e-06
-2.84771e-06
-1.88221e-06
6.90609e-07
3.3844e-06
-5.17665e-06
5.1507e-06
2.59483e-08
-1.23565e-09
-3.77883e-08
5.10839e-06
-5.0706e-06
-5.15711e-06
5.15711e-06
-6.13173e-08
3.87605e-06
5.53472e-06
-5.15913e-06
-3.75588e-07
-5.17992e-06
5.14213e-06
5.17532e-06
-5.149e-06
-2.63111e-08
-3.77048e-06
-8.50616e-08
4.41127e-06
-5.89761e-08
5.14108e-06
-5.0821e-06
5.14267e-06
-5.15237e-06
9.69883e-09
-3.8876e-06
5.11586e-06
-7.47274e-09
-3.95611e-06
3.92086e-06
3.52498e-08
-5.11491e-06
5.13341e-06
-1.85051e-08
3.91767e-06
-3.81605e-06
-5.16622e-06
5.10724e-06
3.96247e-06
-1.26015e-06
1.88737e-06
2.46713e-06
-2.86405e-06
-2.18554e-06
-5.14832e-06
5.14832e-06
-5.1719e-06
-8.02072e-09
4.78758e-06
-8.77665e-07
-3.90992e-06
-3.37347e-06
2.29229e-06
1.28902e-07
5.12413e-06
-5.14003e-06
1.58983e-08
3.7713e-06
-3.76844e-06
-2.86883e-09
5.28377e-06
-5.14648e-06
-1.37287e-07
5.0974e-06
2.67308e-08
5.08802e-06
5.30619e-08
-1.05287e-08
-3.81361e-06
-4.71899e-06
2.59646e-06
2.12253e-06
-3.80826e-06
3.83272e-06
5.11361e-06
-1.62094e-08
5.36572e-07
3.47116e-06
2.75057e-06
-1.05226e-06
-5.15882e-06
-7.40356e-09
4.20698e-06
2.49629e-06
-4.25318e-06
-6.48446e-07
-5.25385e-06
3.83911e-06
-3.86186e-06
2.27416e-08
-1.78047e-07
-5.20556e-06
3.9975e-06
-4.45674e-08
4.44381e-06
-3.03968e-06
-1.40413e-06
-3.8472e-06
5.12143e-06
-5.12143e-06
3.666e-06
4.8699e-08
-3.7147e-06
3.94489e-06
-5.13221e-06
5.12546e-06
6.74895e-09
5.0958e-06
-5.14499e-06
4.91928e-08
3.2419e-06
-4.29178e-06
-1.37107e-08
-5.09608e-06
5.10979e-06
5.08431e-06
-5.09802e-06
-1.69791e-07
5.41837e-06
-4.06889e-06
4.40855e-06
-4.6086e-06
3.19664e-06
-8.10034e-08
5.24835e-06
4.41146e-07
2.27289e-06
4.45693e-08
4.74301e-06
-1.4178e-08
4.10484e-06
-4.09066e-06
-3.50117e-08
-5.14445e-06
-3.22021e-08
4.2239e-06
-4.23317e-07
-3.80058e-06
-5.11028e-06
5.11028e-06
2.99944e-06
-2.58186e-06
-5.1526e-06
5.13907e-06
1.35264e-08
3.9353e-06
-3.9353e-06
3.83047e-06
-5.91608e-08
5.11726e-06
-5.12548e-06
8.22271e-09
-4.94096e-06
1.35143e-06
4.71481e-09
-3.80111e-06
3.7964e-06
4.12257e-06
-3.44201e-08
5.12791e-06
4.74026e-08
3.11096e-06
5.30797e-07
-3.64176e-06
5.14366e-06
-2.78042e-08
3.9967e-06
-3.9967e-06
5.111e-06
-5.09319e-06
-1.78053e-08
-3.90874e-06
3.87938e-06
2.93598e-08
5.15001e-06
-5.13442e-06
-1.55908e-08
-5.11878e-06
5.11878e-06
7.64008e-07
3.58469e-06
1.2118e-07
-3.70587e-06
-5.15302e-06
5.13958e-06
1.34325e-08
-1.91074e-08
-3.85913e-06
3.83663e-06
2.48126e-09
4.7892e-06
-9.04002e-07
-3.8852e-06
3.30907e-06
5.09801e-06
-5.1121e-06
1.40875e-08
3.94056e-06
4.20804e-06
5.93225e-08
3.60667e-06
5.22758e-06
-9.96693e-08
5.0812e-06
1.68132e-08
3.73969e-06
-3.73969e-06
-1.96889e-06
5.16997e-06
-5.12929e-06
-1.57034e-08
5.12672e-06
-5.10743e-06
-1.9288e-08
1.00435e-07
-5.22403e-06
5.1236e-06
5.37449e-07
-5.16836e-06
-5.1437e-06
5.13482e-06
8.88351e-09
3.71371e-06
-3.71141e-06
-2.29636e-09
3.91161e-06
-3.45194e-06
3.45194e-06
5.09154e-06
-1.03433e-08
-3.81729e-06
-3.56407e-06
3.59511e-06
3.96127e-06
-4.12984e-08
-1.16261e-08
4.05918e-07
-5.05667e-06
5.12581e-06
-5.12749e-06
1.68206e-09
1.22253e-07
3.59145e-06
1.18414e-07
4.10549e-06
3.85983e-06
-2.9363e-08
-5.13229e-06
5.12628e-06
6.00727e-09
5.08702e-06
-5.10133e-06
1.43143e-08
-5.12759e-06
-2.50119e-08
5.11373e-06
-5.10025e-06
-1.34817e-08
3.86144e-06
7.38665e-08
5.11682e-06
2.22549e-08
-6.47803e-09
5.10544e-06
2.08461e-08
-7.76492e-10
-3.78261e-06
-5.18322e-06
5.47071e-08
-3.83596e-06
3.83596e-06
4.81862e-08
4.74102e-06
-3.89825e-06
7.4429e-07
2.69404e-08
5.11573e-06
2.13521e-07
-3.68856e-06
3.47504e-06
3.57275e-08
5.12138e-06
4.88627e-06
-5.32892e-06
3.85836e-06
1.38338e-07
5.08431e-06
-3.92094e-08
3.6239e-06
-3.72958e-06
1.81738e-08
3.67539e-06
-5.64432e-07
-5.09702e-06
5.09702e-06
-5.12428e-06
-2.87325e-08
3.45794e-06
-3.58256e-06
1.24616e-07
-5.12138e-06
3.77415e-06
-3.76944e-06
5.11431e-06
2.52765e-08
-5.11664e-06
-4.55192e-06
3.16804e-06
-5.13859e-06
5.13001e-06
8.5759e-09
3.49236e-06
3.28874e-07
3.80111e-06
2.30255e-08
-5.08046e-06
5.11539e-06
-3.49295e-08
-3.86051e-06
3.82633e-06
3.41743e-08
-5.09672e-06
1.62583e-08
3.8441e-06
-7.46465e-09
2.12095e-07
-3.97362e-06
3.76152e-06
5.09558e-06
-5.11819e-06
2.26105e-08
4.14494e-06
-4.33899e-06
5.095e-06
-5.09444e-06
-5.60614e-10
-3.25491e-06
3.25491e-06
-4.00849e-06
4.00849e-06
-5.08913e-06
-7.58895e-09
-2.37829e-06
2.81943e-06
-5.10374e-06
5.09622e-06
7.51637e-09
3.99246e-08
5.10839e-06
3.18235e-06
-2.81943e-06
-3.18235e-06
3.36085e-06
3.3779e-06
-3.88303e-06
4.66323e-06
-2.76243e-06
-1.90079e-06
-5.12198e-06
-2.17188e-08
-7.37356e-07
-3.36085e-06
4.09821e-06
5.11555e-06
1.92693e-08
-3.87598e-06
3.59142e-06
5.13028e-06
-5.1199e-06
-1.03792e-08
-5.1001e-06
-3.84128e-06
3.85968e-06
-1.19984e-07
-1.36907e-08
5.1273e-06
5.10572e-06
-3.7964e-06
-5.22749e-06
-3.06827e-06
3.918e-06
-8.4973e-07
-5.07767e-06
-1.84097e-08
5.09919e-06
6.24375e-09
2.97359e-06
-3.03823e-06
6.46443e-08
5.87384e-09
3.58256e-06
-3.72691e-06
1.44351e-07
2.35484e-06
2.3887e-06
-5.11968e-06
-1.89087e-08
-3.87828e-06
5.07677e-06
-5.07251e-06
-4.25575e-09
5.11353e-06
1.64825e-08
-5.12837e-06
5.12285e-06
5.52109e-09
3.92055e-06
3.86144e-06
-5.08981e-06
5.07863e-06
1.11777e-08
5.12573e-06
-5.12345e-06
-2.27233e-09
-3.81232e-06
3.85836e-06
5.08741e-06
-5.08741e-06
2.03035e-08
5.1304e-06
-3.21223e-06
-6.86022e-07
5.09804e-06
-2.45976e-09
-6.54534e-07
3.48186e-06
-2.82732e-06
5.08499e-06
-5.08059e-06
-4.4002e-09
1.55887e-08
5.10584e-06
5.07573e-06
-5.08027e-06
4.53859e-09
-5.13512e-06
-5.11662e-06
-3.08226e-06
4.43032e-09
5.12103e-06
-5.42407e-09
-5.10297e-06
5.1084e-06
-5.08773e-06
5.07661e-06
1.11244e-08
-5.11947e-06
-8.90494e-09
-3.87517e-06
-3.74288e-06
1.3292e-08
5.11422e-06
8.63276e-09
-5.08311e-06
5.08097e-06
2.14874e-09
-5.0866e-06
1.91642e-08
5.06743e-06
5.11795e-06
1.23252e-08
-5.1021e-06
-1.77969e-08
-3.72204e-06
-1.76546e-08
5.11545e-06
-5.11858e-06
3.1377e-09
5.08526e-06
-5.09069e-06
-5.09557e-06
5.08853e-06
7.03451e-09
5.08286e-06
-5.07875e-06
-4.1168e-09
3.83266e-06
3.29941e-09
5.11712e-06
8.60472e-09
-5.10996e-06
-1.34898e-08
-5.1287e-06
3.85968e-06
-5.0856e-06
5.07544e-06
1.01572e-08
3.37564e-06
-3.5958e-06
-5.07125e-06
5.0903e-06
-1.90426e-08
5.087e-06
-5.0946e-06
7.60383e-09
-1.24725e-08
-5.11454e-06
-4.92387e-09
-1.32807e-08
-4.51547e-06
3.20327e-06
-8.73764e-09
5.08526e-06
-8.44951e-09
-5.46241e-09
-5.11885e-06
4.30581e-09
1.95842e-06
4.29975e-06
-6.25817e-06
-1.05935e-06
5.11545e-06
-7.41425e-12
-5.10584e-06
9.46018e-09
5.10082e-06
-5.10889e-06
-9.69694e-09
-3.84529e-06
-5.12394e-06
5.09205e-09
1.79607e-08
5.0993e-06
-7.84831e-10
2.42665e-08
-5.0373e-06
5.01303e-06
5.12253e-06
-5.11993e-06
-2.60226e-09
-3.91402e-06
7.01795e-07
5.11267e-06
-5.10372e-06
-8.94865e-09
-5.11602e-06
-3.7937e-06
-2.00049e-07
5.08179e-06
-5.07777e-06
-4.02034e-09
2.67393e-08
-5.04208e-06
5.01534e-06
-5.12124e-06
5.1117e-06
9.54213e-09
-3.87216e-06
3.84001e-06
3.21546e-08
4.47351e-09
-5.12118e-06
-2.75786e-09
-3.89472e-06
8.08136e-07
3.08659e-06
-5.11452e-06
-6.72762e-09
5.12083e-06
1.70187e-09
-5.11244e-06
-7.48645e-09
-2.0413e-08
-5.12153e-06
3.47673e-10
-3.68309e-06
-4.28024e-07
4.11112e-06
2.94393e-06
2.15213e-08
-5.10082e-06
3.84095e-06
-1.46152e-08
-5.08155e-06
5.08155e-06
-9.8287e-09
5.11838e-06
2.44643e-09
-4.06066e-09
7.98624e-09
8.2358e-09
5.12032e-06
-1.9329e-09
3.01053e-09
5.11898e-06
-5.11902e-06
4.80138e-11
3.69465e-06
-3.69465e-06
-5.10841e-06
5.09742e-06
1.09877e-08
5.09006e-06
-5.08484e-06
-5.21367e-09
-7.19385e-09
5.11712e-06
3.19793e-09
5.11736e-06
1.62e-09
-1.90632e-09
5.11781e-06
5.11287e-06
-5.11569e-06
2.81971e-09
-5.16222e-06
-5.09652e-06
-1.18919e-08
3.94024e-06
-4.82689e-08
5.1083e-06
4.56362e-09
4.27891e-08
5.11217e-06
-5.10657e-06
-5.60003e-09
-3.65142e-06
3.65142e-06
2.86974e-08
5.09008e-06
-5.08069e-06
5.08886e-06
-8.17372e-09
5.11109e-06
1.07905e-09
3.79946e-08
3.82183e-06
5.10504e-06
-5.1031e-06
-1.94387e-09
-5.06476e-06
-1.59257e-08
5.09069e-06
-5.09485e-06
4.16361e-09
5.10174e-06
3.30555e-09
5.11117e-06
6.18609e-09
-5.06464e-08
-5.05233e-06
-8.04403e-09
-4.5032e-07
-3.43217e-06
5.08264e-06
-5.08757e-06
4.92992e-09
1.51948e-07
3.54271e-06
5.1044e-06
-5.0996e-06
-4.79658e-09
-4.51687e-09
-8.7662e-08
-4.24428e-06
4.33194e-06
-3.69722e-06
3.73942e-06
-4.21979e-08
-5.05877e-06
5.0604e-06
-1.63284e-09
5.0985e-06
5.90034e-09
-5.0834e-06
-3.17702e-06
5.13543e-06
5.10052e-06
-5.09326e-06
-7.25252e-09
-5.10545e-06
5.10558e-06
-1.26148e-10
5.09084e-06
-5.08623e-06
-4.60771e-09
-4.95324e-07
-4.36653e-06
4.86186e-06
5.09526e-06
5.25367e-09
-5.06267e-06
3.90103e-09
5.10125e-06
-5.09472e-06
-6.52923e-09
3.83266e-06
-3.92516e-06
3.92516e-06
5.09935e-06
-5.08974e-06
-9.60995e-09
-9.87041e-09
5.10141e-06
-8.02827e-09
-3.83792e-06
5.09214e-06
7.2091e-09
-5.10498e-06
-9.54113e-09
-5.05487e-06
5.05758e-06
-2.70211e-09
5.10553e-06
2.77168e-09
8.63994e-08
5.0541e-06
-1.04236e-09
5.10078e-06
1.29492e-08
3.82066e-06
2.02923e-08
6.00638e-10
-5.05989e-06
5.01901e-09
3.89509e-07
1.41834e-08
1.64517e-07
5.08608e-06
-5.09084e-06
4.76612e-09
-5.04951e-06
5.0554e-06
-5.88809e-09
9.09238e-08
-3.82629e-06
3.73537e-06
6.83931e-07
-3.98538e-06
3.30145e-06
1.46002e-06
3.61391e-06
-3.61391e-06
5.08254e-06
-5.08254e-06
-4.18191e-06
2.33279e-09
-5.09214e-06
3.90032e-06
5.09961e-06
1.14804e-08
-9.61317e-07
-1.7887e-06
2.75002e-06
-5.05691e-06
7.39362e-09
-5.05969e-06
-1.64347e-07
2.16231e-06
-3.56753e-06
1.40522e-06
-3.48659e-09
3.46045e-08
5.05569e-06
1.25971e-08
3.8315e-06
-5.10689e-06
1.07536e-08
5.08627e-06
3.24461e-06
-3.95903e-06
7.1442e-07
3.30124e-06
-1.13893e-06
-6.36605e-09
-5.08137e-06
5.10766e-06
-5.07306e-06
-5.09299e-06
-5.04285e-06
5.03805e-06
4.7912e-09
1.1418e-09
5.09508e-06
5.07726e-06
5.28362e-09
4.6395e-06
-3.0796e-06
-1.5599e-06
-1.76234e-08
3.87598e-06
5.09367e-06
8.06503e-09
4.63784e-06
-5.13316e-06
3.45093e-08
5.05555e-06
-6.01253e-09
-5.07959e-06
-5.04877e-06
5.92358e-09
-3.70823e-06
1.1002e-08
3.89674e-06
-3.12455e-06
-7.72192e-07
5.06818e-06
-5.06861e-06
4.31277e-10
-5.92875e-09
1.46273e-06
-2.05569e-06
-1.92545e-06
3.98114e-06
5.07765e-06
-5.08546e-06
7.80586e-09
4.04322e-06
-3.99452e-06
-1.37352e-08
3.87517e-06
-3.32763e-06
2.36631e-06
5.07252e-06
-5.07761e-06
5.09141e-09
5.10171e-06
-5.0672e-06
-3.82181e-06
1.27153e-07
-3.83653e-06
3.83155e-06
4.98124e-09
3.72691e-06
-3.81457e-06
8.09988e-08
5.05242e-06
-3.87192e-06
3.75388e-06
-1.36792e-07
5.09377e-06
-5.0876e-06
-6.17414e-09
3.9658e-06
-3.78786e-06
-1.77946e-07
5.07726e-06
-3.06933e-09
-5.08005e-06
-3.75518e-06
1.23026e-08
4.70976e-07
2.88461e-06
-3.35559e-06
-5.03641e-06
5.03094e-06
5.46845e-09
5.06921e-06
1.77892e-08
-3.21015e-06
-6.72886e-07
3.69663e-08
5.05387e-06
5.08531e-06
-5.09721e-06
1.19e-08
5.0791e-06
-9.37464e-09
-5.06313e-06
-3.96952e-06
-6.69416e-07
5.08792e-06
1.05764e-08
5.41006e-06
-1.11031e-06
-3.08936e-08
5.08293e-06
-5.05203e-06
5.08061e-06
4.69917e-09
-5.0436e-06
7.19769e-09
-5.05813e-06
-3.6317e-08
-9.68617e-09
5.01497e-06
-5.00528e-06
6.60741e-09
5.0808e-06
5.10238e-06
-5.06542e-06
-5.08627e-06
-1.86053e-08
3.87828e-06
-5.33983e-09
3.84645e-06
-1.97844e-07
-3.64861e-06
5.18963e-08
3.79456e-06
-5.02214e-06
5.01245e-06
-5.0855e-06
-1.1018e-08
3.22828e-06
6.68462e-07
-1.92203e-08
3.93326e-06
-3.91404e-06
-3.25898e-06
-2.7256e-06
3.19657e-06
-4.25044e-06
5.26087e-07
3.72435e-06
5.07862e-06
3.88386e-09
-5.08447e-06
5.05607e-08
5.0571e-06
5.07102e-06
-5.07177e-06
7.53116e-10
5.0821e-06
-5.06697e-06
-1.51362e-08
-5.08896e-06
3.36343e-09
-7.319e-09
-3.8402e-06
3.84752e-06
7.50612e-10
5.08778e-06
-3.52967e-06
1.03346e-06
-5.08233e-06
5.07947e-06
2.86515e-09
-5.02932e-06
5.02332e-06
6.00213e-09
4.98352e-08
4.15512e-06
-4.03394e-06
3.04695e-06
-7.33604e-08
-2.64644e-08
5.08578e-06
-5.05931e-06
-4.53443e-06
2.47874e-06
5.07685e-06
4.49666e-09
-5.08324e-06
5.08213e-06
1.3133e-08
-4.74955e-06
4.74249e-08
4.70213e-06
7.97544e-09
-5.0373e-06
5.0721e-06
-5.06678e-06
-5.32884e-09
-1.61066e-07
5.1021e-06
-4.94103e-06
-7.61155e-09
-1.04352e-06
4.77483e-06
-3.73131e-06
-3.82181e-06
-4.23381e-06
5.0753e-06
-2.77944e-09
4.46342e-08
5.05707e-06
4.94872e-06
5.12335e-06
-5.1196e-06
-3.74839e-09
3.63431e-10
-3.84695e-06
3.84659e-06
-5.07823e-06
5.07478e-06
3.45106e-09
1.02649e-07
-3.82469e-06
3.72204e-06
5.08494e-06
-5.08284e-06
-2.10418e-09
-3.93715e-06
3.91793e-06
5.06999e-06
-5.06608e-06
-3.90798e-09
1.42347e-08
5.06787e-06
-5.63116e-08
5.09696e-06
-5.08146e-06
5.16539e-08
-3.74769e-06
5.08123e-06
-5.08035e-06
-8.83083e-10
5.07872e-06
2.9656e-09
-5.08074e-06
5.05271e-06
1.07144e-08
-5.06343e-06
1.21399e-09
5.08187e-06
-5.06764e-06
-1.213e-08
-3.84808e-06
3.86021e-06
2.72906e-06
-4.01519e-06
1.28613e-06
-8.53868e-07
-3.89569e-06
-3.73232e-06
-8.38473e-07
-3.2751e-06
-5.07564e-06
2.93108e-08
5.04633e-06
-3.87149e-06
3.84808e-06
2.34067e-08
-1.17821e-06
-3.11357e-06
-5.07298e-06
4.52871e-06
-5.06249e-06
5.07142e-06
-8.93214e-09
-4.23084e-06
4.20229e-07
3.81061e-06
4.04037e-06
-3.10458e-06
-9.35796e-07
-5.08026e-06
1.02042e-08
5.07005e-06
3.85451e-06
-3.8062e-06
1.06436e-08
5.06146e-06
-5.0808e-06
5.16781e-09
5.07638e-06
5.07561e-06
1.65261e-08
-8.46449e-10
-5.07942e-06
-1.64812e-08
-5.06585e-06
-5.06759e-06
3.85001e-06
-3.80258e-06
-2.15907e-08
1.08539e-06
3.35841e-06
-3.47513e-06
3.47513e-06
4.41322e-08
5.05825e-06
-5.75843e-06
-4.68469e-06
4.68506e-06
5.08252e-06
3.84719e-06
-3.81919e-06
-5.07474e-06
5.05825e-06
-4.28962e-06
4.39227e-06
5.07118e-06
-5.06675e-06
-4.43215e-09
6.15729e-09
5.07648e-06
-5.13582e-06
3.86426e-06
-3.87639e-06
-5.07328e-06
8.51455e-09
1.91105e-06
5.08571e-06
-5.07953e-06
-6.178e-09
-5.0824e-06
5.07142e-06
-5.06719e-06
-4.22979e-09
-5.07057e-06
-5.06199e-09
5.05979e-06
-5.04429e-06
-3.87925e-06
4.66302e-06
5.06704e-06
-5.06539e-06
-1.65433e-09
-8.9491e-09
5.06166e-06
-3.87149e-06
3.35563e-06
-3.63656e-06
2.80927e-07
-6.24347e-06
6.24347e-06
5.08012e-06
5.08111e-06
-1.28741e-08
8.52655e-09
-5.07961e-06
5.09731e-06
-1.76994e-08
5.06989e-06
-5.06564e-06
-4.24647e-09
-4.20698e-06
4.00693e-06
1.56872e-08
5.06724e-06
-5.08018e-06
1.37307e-08
5.06645e-06
-5.06529e-06
5.07624e-06
-5.06945e-06
-3.89048e-06
-5.07597e-06
1.69708e-08
5.059e-06
-3.89603e-06
-1.09755e-08
3.80209e-06
-3.83072e-06
2.86317e-08
5.06324e-06
-5.06751e-06
4.26777e-09
9.38665e-08
-5.0759e-06
5.06747e-06
8.42365e-09
5.0727e-06
-3.7196e-06
-3.69359e-06
-6.15918e-08
5.0792e-06
-5.0792e-06
-2.58761e-08
3.85854e-06
-5.07638e-06
5.06894e-06
-5.06471e-06
-4.23758e-09
5.07841e-06
-2.83187e-08
-5.07193e-06
-3.7761e-06
-4.68184e-07
-3.87261e-06
3.03385e-06
-3.3887e-06
3.54853e-07
-7.59487e-07
-3.27698e-06
4.03647e-06
5.05961e-06
-5.04621e-06
3.28089e-06
-3.82629e-06
-1.09503e-08
-5.06931e-06
5.07167e-06
-5.06747e-06
-4.20765e-09
3.89635e-06
-3.91584e-06
-1.07108e-06
-7.08052e-07
1.77914e-06
-4.04164e-06
4.07565e-06
3.91044e-06
-3.85854e-06
-1.52748e-08
-3.79219e-06
3.80746e-06
-1.84093e-08
-3.76302e-06
3.78143e-06
1.27117e-08
-3.9439e-06
3.93119e-06
3.60851e-08
-3.95974e-06
3.92365e-06
1.82742e-08
-3.87981e-06
3.86154e-06
-7.37954e-09
-3.79738e-06
3.80476e-06
-8.40106e-09
-3.79422e-06
3.80262e-06
2.28347e-06
-1.53871e-06
-7.44762e-07
3.36842e-06
2.47683e-08
5.06101e-06
3.71298e-06
-3.7348e-06
2.18159e-08
1.19252e-08
-5.06967e-06
5.05774e-06
5.08281e-06
-5.08281e-06
5.01549e-06
-1.14174e-09
-5.01435e-06
-1.69367e-08
-5.0578e-06
5.06857e-06
-5.06415e-06
-4.41522e-09
-3.15043e-06
-4.13636e-06
-9.44715e-08
3.32152e-06
6.44277e-07
5.07876e-06
-5.0719e-06
-6.86234e-09
-3.86593e-06
4.01756e-06
1.68406e-08
5.06503e-06
-2.78681e-06
-1.74763e-06
3.79591e-08
3.63865e-06
-3.67661e-06
-2.59823e-06
-4.4e-07
-8.71794e-07
-5.39595e-07
1.41139e-06
3.81363e-06
3.81422e-06
3.98074e-06
3.98098e-06
3.95327e-06
3.90214e-06
-1.78083e-08
-3.82353e-06
3.84134e-06
3.82592e-06
-5.26295e-09
-1.50668e-06
5.07021e-06
-5.05828e-06
-1.25361e-07
4.07826e-06
-5.0855e-06
-3.47162e-06
4.29261e-06
5.00889e-06
4.23226e-09
-5.01312e-06
5.08949e-06
-1.02965e-08
-5.07854e-06
1.82395e-08
5.0603e-06
-3.83021e-06
-3.8402e-06
3.83945e-06
-3.85726e-06
-3.49448e-06
4.22068e-06
-7.26198e-07
-9.07759e-09
-5.0669e-06
2.64812e-06
-3.30266e-06
8.3709e-09
-5.07515e-06
-5.06916e-06
-1.34836e-06
-1.97927e-06
-5.06008e-06
-9.58632e-09
3.88505e-06
1.21238e-06
2.95486e-06
5.06365e-06
-5.05975e-06
-3.90399e-09
3.85975e-06
-2.55606e-06
-1.30369e-06
-1.83801e-06
9.66219e-07
-2.13048e-06
4.60922e-06
-1.84709e-06
3.83965e-06
-1.99256e-06
1.61046e-09
5.07604e-06
-5.04132e-06
5.06718e-06
-5.07014e-06
2.95738e-09
-2.86989e-06
1.22384e-06
1.64605e-06
-1.69328e-08
-3.82244e-06
3.83937e-06
5.30749e-06
-2.34952e-06
-2.95797e-06
3.74952e-09
5.01174e-06
-1.1032e-06
-1.76669e-06
-3.70315e-06
3.74111e-06
3.15932e-06
2.09102e-07
-3.68539e-06
-7.79738e-09
-3.82766e-06
3.83546e-06
3.95379e-06
-3.83154e-06
-2.35406e-06
-8.92593e-07
3.24665e-06
-5.05946e-06
5.06092e-06
-1.46388e-09
-3.74101e-06
3.79266e-06
5.06504e-06
-5.06833e-06
-3.3864e-06
-8.87362e-08
-5.10273e-06
5.08344e-06
-2.64191e-06
3.82343e-09
5.0676e-06
4.41989e-06
-2.44273e-06
-1.97716e-06
3.74126e-06
-7.07412e-07
4.17979e-06
-5.41138e-07
3.83342e-06
-3.85035e-06
5.05816e-06
-5.05838e-06
2.18183e-10
3.83748e-06
-3.84528e-06
4.65114e-09
-5.05555e-06
5.0509e-06
-2.13251e-06
-5.09393e-07
9.86278e-09
-3.88911e-06
-5.06984e-06
7.16678e-09