/*--------------------------------*- C++ -*----------------------------------*\
  =========                 |
  \\      /  F ield         | OpenFOAM: The Open Source CFD Toolbox
   \\    /   O peration     | Website:  https://openfoam.org
    \\  /    A nd           | Version:  12
     \\/     M anipulation  |
\*---------------------------------------------------------------------------*/
FoamFile
{
    format      ascii;
    class       surfaceScalarField;
    location    "0.3";
    object      phi;
}
// * * * * * * * * * * * * * * * * * * * * * * * * * * * * * * * * * * * * * //

dimensions      [0 3 -1 0 0 0 0];

internalField   nonuniform List<scalar> 
6438
(
-4.83039e-08
6.0859e-06
-6.0376e-06
-5.19896e-08
7.07051e-06
-7.01852e-06
-6.63511e-06
-1.13322e-06
7.76833e-06
6.29227e-06
-6.91086e-06
6.18594e-07
9.66367e-06
-7.55209e-06
-2.11158e-06
2.17767e-06
7.486e-06
-7.5491e-06
9.13993e-07
-6.53561e-06
6.48362e-06
7.07161e-06
-8.43655e-06
1.36494e-06
6.5598e-06
-7.69885e-06
1.13906e-06
-6.34359e-06
7.72745e-06
-1.38386e-06
1.52127e-06
-6.94758e-06
5.42631e-06
-7.86807e-06
1.52448e-06
6.02908e-06
2.76925e-06
-8.79833e-06
5.66857e-06
-5.71687e-06
-3.20646e-07
6.64181e-06
-6.32116e-06
-8.36909e-06
8.1186e-06
2.50495e-07
-6.33712e-06
7.7031e-06
-1.36598e-06
-7.86966e-06
1.53254e-06
2.49836e-06
5.27092e-06
-7.76928e-06
-1.81762e-06
-1.18578e-06
3.0034e-06
-3.85248e-07
6.95497e-06
-6.56972e-06
-6.4565e-06
-1.04566e-06
7.50217e-06
-7.90697e-06
3.46311e-06
4.44387e-06
-6.85035e-06
6.4651e-06
-6.0838e-06
7.39617e-06
-1.31237e-06
-7.45444e-06
9.9794e-07
7.05123e-06
-5.52996e-06
-6.40583e-06
-1.20848e-06
7.61431e-06
-7.75901e-06
1.67521e-06
5.92326e-06
-7.46322e-06
1.53996e-06
3.25093e-08
-7.26154e-06
7.22903e-06
7.10734e-06
-7.15454e-06
4.71946e-08
-7.04264e-06
1.17988e-06
5.86277e-06
-9.5066e-06
1.54263e-06
7.96396e-06
6.68737e-06
-6.65486e-06
6.74986e-06
-4.57589e-07
4.37865e-06
6.13614e-06
-1.05148e-05
-2.18267e-06
8.21175e-06
-6.2777e-06
6.90097e-06
-6.23271e-07
-7.27753e-06
7.21326e-06
6.42703e-08
-3.01617e-06
5.51452e-06
6.50385e-06
5.59457e-08
-7.82102e-06
7.66077e-06
1.60251e-07
6.9929e-06
-1.06964e-06
-5.28299e-06
4.96235e-06
-9.09557e-06
1.54348e-06
6.91763e-06
6.64684e-07
-7.58232e-06
-5.36113e-06
-1.68151e-06
-9.89344e-07
-6.46951e-06
7.3427e-06
-8.73186e-07
-4.79708e-06
6.93504e-06
-2.13797e-06
6.97674e-06
-6.97674e-06
2.19583e-06
5.29112e-06
6.95248e-07
-5.98637e-06
3.10457e-06
1.51636e-06
-4.62092e-06
5.90427e-06
1.25445e-06
-7.15872e-06
5.70588e-06
-2.24277e-06
-3.30725e-06
-5.78832e-06
-6.87286e-08
6.15161e-06
-6.08288e-06
-7.58504e-06
7.58504e-06
-7.86201e-06
7.94633e-06
-8.43174e-08
3.19956e-07
5.83746e-06
-6.15742e-06
2.17691e-08
-7.15653e-06
7.13476e-06
6.64219e-06
-6.62042e-06
-7.24306e-06
8.37227e-07
-7.25976e-06
-5.61264e-07
-6.24482e-06
6.86881e-06
-6.23986e-07
6.91418e-07
5.98093e-06
-6.67234e-06
-7.34711e-06
7.06442e-06
2.82686e-07
7.15905e-06
-7.15905e-06
6.64848e-06
4.23131e-07
-4.3707e-06
-3.32815e-06
6.23729e-06
1.31561e-06
-7.55291e-06
-6.11568e-06
-1.16185e-06
5.43519e-06
4.19557e-06
-9.63076e-06
-8.41164e-06
5.39547e-06
-5.35954e-06
-3.05211e-06
7.42213e-06
-1.18483e-06
4.41788e-06
-1.31332e-06
6.00089e-06
6.91712e-07
-6.6926e-06
-7.40105e-06
-4.60959e-07
-1.0433e-06
-1.80525e-06
-5.77979e-06
8.02709e-06
-8.02709e-06
-5.30031e-06
-2.0468e-06
-4.79975e-07
-9.02662e-06
-6.92592e-06
6.89813e-06
2.7798e-08
2.49756e-07
-7.01088e-06
6.76112e-06
-7.70044e-07
6.77094e-06
6.92996e-06
1.77383e-07
-7.23956e-06
-1.12954e-06
-7.31516e-06
7.50378e-06
-1.8862e-07
7.61951e-06
-4.26571e-06
-3.3538e-06
6.84562e-06
-6.59586e-06
1.38499e-07
7.66732e-06
-3.90176e-06
-3.76556e-06
4.36513e-06
3.25437e-06
7.04406e-06
-7.04406e-06
-5.4025e-06
7.75266e-06
-2.35015e-06
-6.79204e-06
3.22526e-07
-9.27507e-07
-5.50338e-06
6.43089e-06
-6.36469e-06
2.49007e-07
-6.82317e-06
1.42066e-06
5.88945e-06
1.30512e-06
-7.19458e-06
-4.00707e-07
6.29016e-06
-6.14877e-06
7.10489e-06
-9.56126e-07
-6.53404e-06
2.56345e-07
4.49117e-06
3.17615e-06
6.79858e-06
-1.37227e-06
2.9165e-07
6.68509e-06
-5.87074e-06
-4.93951e-07
6.13967e-06
1.30727e-06
-7.44694e-06
-3.39222e-06
-2.93029e-06
6.32251e-06
4.46833e-06
-5.58839e-07
-3.90949e-06
-7.26154e-06
1.47136e-06
7.28585e-06
-8.75721e-06
-3.37566e-06
1.55804e-06
7.26722e-06
1.28955e-07
7.86685e-06
-4.07426e-06
-3.79259e-06
2.63559e-06
5.23127e-06
7.35804e-06
-1.21837e-06
8.97137e-06
-4.59273e-06
-6.6465e-06
1.51148e-08
6.63138e-06
-9.50519e-06
9.75701e-07
8.52949e-06
-1.09145e-07
-6.59628e-06
6.70543e-06
7.25756e-06
4.03207e-07
-5.59627e-06
5.52754e-06
-6.67884e-06
6.81329e-06
-1.34448e-07
6.76258e-06
-6.87172e-06
6.97595e-06
-6.97595e-06
6.87479e-06
1.95722e-07
6.88823e-06
-1.59711e-06
6.79727e-06
-6.47731e-06
-5.98513e-06
5.05762e-06
6.14512e-08
6.59416e-06
-6.65561e-06
7.74202e-06
-5.42693e-06
-2.31509e-06
-7.15653e-06
-1.02495e-07
7.9666e-08
-6.61527e-06
-6.63209e-06
3.8727e-07
7.69162e-08
6.61045e-06
6.39709e-06
-5.70567e-06
-6.59751e-06
4.48746e-07
6.69529e-06
-1.91443e-07
-2.38652e-07
5.82534e-06
-5.58669e-06
4.57692e-06
3.1651e-06
-6.8632e-06
1.47076e-06
5.39244e-06
6.99065e-06
-5.56075e-08
-9.24842e-06
8.45599e-07
8.40283e-06
-9.37804e-08
-6.56145e-06
6.65523e-06
4.36209e-06
1.06232e-07
4.15338e-07
6.57531e-06
6.50987e-06
5.41357e-07
6.72253e-06
-6.81631e-06
-7.00518e-06
-2.34382e-07
7.14402e-06
-7.67207e-06
5.28047e-07
-6.39037e-06
-2.56124e-07
-7.77615e-06
3.3719e-06
4.40425e-06
7.46132e-09
6.72439e-06
2.30585e-07
-6.32632e-06
7.35572e-06
-1.0294e-06
-6.98229e-06
6.00952e-06
9.72765e-07
-9.43412e-07
2.43677e-06
-1.49336e-06
-2.18538e-06
-5.57363e-06
-7.01088e-06
-5.5539e-08
6.69773e-06
2.04869e-06
5.70397e-06
-1.12475e-07
-6.81882e-06
-3.15301e-08
-1.43492e-07
-7.45775e-06
6.30324e-06
1.15451e-06
-4.40368e-07
5.55356e-06
1.09491e-06
1.09006e-05
-4.76442e-06
-2.3066e-06
-5.56306e-06
6.83819e-06
9.17742e-08
-5.87377e-06
2.48155e-06
-2.63421e-06
-4.16223e-06
6.79645e-06
-2.35181e-06
-5.51626e-06
-3.83196e-06
9.26715e-06
-7.04677e-06
2.27952e-07
-6.6554e-06
6.6812e-06
-2.58e-08
-5.50374e-06
5.26508e-06
-8.04467e-08
-6.52263e-06
6.60308e-06
-7.16866e-06
1.21888e-07
5.982e-06
-7.11724e-06
1.13524e-06
6.66399e-06
-6.74444e-06
5.95578e-06
-2.25584e-06
-3.69994e-06
-9.00486e-06
3.1887e-06
5.81616e-06
6.10893e-06
5.86362e-07
5.0466e-06
3.072e-06
1.4767e-06
6.5504e-06
-1.74869e-06
-6.27841e-06
-7.25129e-06
7.18858e-06
6.27089e-08
-7.2324e-06
-1.88854e-08
-7.19423e-06
-3.81741e-08
1.99256e-08
1.86936e-06
-1.0482e-05
8.61264e-06
-7.78969e-06
9.26105e-06
6.15143e-06
-6.08998e-06
6.571e-06
2.74619e-07
5.36811e-07
5.41897e-06
-6.59628e-06
-5.98105e-06
5.95161e-06
7.44148e-07
-6.69576e-06
-3.49321e-08
-1.41804e-06
1.04692e-05
-9.05112e-06
9.93211e-06
-7.16286e-06
-3.01016e-06
4.52652e-06
-1.90852e-06
-5.86763e-06
-5.21565e-06
-3.78921e-06
-6.59541e-06
-4.09769e-07
-6.64095e-06
6.64004e-06
9.16658e-10
-1.05146e-06
6.23761e-06
-5.18615e-06
-7.12445e-06
7.1746e-06
-5.01523e-08
-7.05022e-06
-7.42265e-08
-9.06658e-06
5.6334e-07
8.50324e-06
-6.33983e-06
-4.11277e-07
6.7511e-06
7.09732e-06
7.72807e-08
-1.26213e-06
-7.75701e-06
2.82306e-06
4.93395e-06
4.55478e-08
-4.10977e-06
-3.64724e-06
-9.6908e-08
-7.27038e-08
-6.48656e-06
6.55926e-06
-6.67256e-06
3.32729e-07
6.02983e-06
8.08357e-07
6.94937e-06
-6.65772e-06
6.60219e-06
-6.67489e-06
6.57254e-06
1.90036e-07
3.22881e-06
6.7033e-06
6.86987e-06
-1.31631e-06
-5.38509e-07
-8.96669e-06
-3.94402e-07
5.41897e-06
-5.02457e-06
-7.01677e-06
-3.345e-08
-7.01584e-06
-9.37551e-10
7.073e-06
-7.02255e-06
-5.04534e-08
6.99502e-06
7.79782e-08
-6.56145e-06
1.61865e-06
-2.22378e-06
6.0513e-07
-7.91998e-06
4.63136e-06
3.28862e-06
3.55239e-06
-7.11941e-06
3.56701e-06
-6.21386e-06
-5.78185e-07
-6.61886e-06
6.58601e-06
3.28522e-08
-6.88815e-06
6.64196e-06
2.46193e-07
-5.49644e-07
7.04865e-06
-6.499e-06
-6.83914e-06
1.66579e-07
-7.5933e-06
9.46266e-06
-7.07696e-07
-6.15551e-06
-7.13828e-06
6.58864e-06
-5.59458e-06
-5.15383e-07
6.10996e-06
-5.24785e-06
6.94962e-06
4.54013e-08
-4.7651e-06
-1.27404e-06
1.41281e-06
-1.38776e-07
-6.62165e-08
2.54721e-07
-9.05818e-06
8.80346e-06
-5.08026e-06
-2.46885e-06
-7.05142e-06
6.90581e-06
1.45614e-07
-6.94285e-06
-1.08574e-07
-2.49884e-06
1.55543e-06
6.56086e-06
1.61671e-07
7.00892e-06
-1.17146e-06
6.93543e-06
-6.92684e-06
-8.58133e-09
-1.88755e-08
-6.43722e-06
6.4561e-06
7.2576e-06
-5.20891e-06
-8.71209e-08
7.20845e-06
4.06287e-06
-1.12713e-05
7.14309e-06
-7.14309e-06
1.10148e-06
6.48356e-06
-2.52018e-06
-4.45656e-06
-5.69121e-06
6.85783e-06
-1.16662e-06
-7.6244e-07
-6.12571e-06
6.56906e-06
-6.58793e-06
-6.28902e-06
1.08463e-07
6.18056e-06
1.20763e-06
-6.37529e-06
5.16766e-06
-6.60023e-06
6.53262e-06
6.76104e-08
4.21532e-06
3.04227e-06
-2.05858e-07
-1.06818e-06
-3.95931e-06
-3.96066e-06
-1.51248e-06
-7.04491e-06
7.18596e-07
-6.52263e-06
5.91002e-06
1.234e-06
-5.4944e-06
-6.16601e-06
5.71426e-07
-6.29233e-06
3.65811e-06
7.13878e-06
-5.80416e-06
-1.33462e-06
1.22035e-06
5.72902e-06
-5.05883e-06
-2.39561e-06
-6.98503e-06
6.98503e-06
6.98445e-06
-6.71552e-06
-2.68929e-07
4.02885e-07
-6.61674e-06
-5.58753e-06
6.31584e-06
-7.28317e-07
-2.21544e-06
1.02967e-06
6.50823e-06
-6.5399e-06
3.16753e-08
6.83168e-06
7.41281e-08
6.90539e-06
7.9059e-08
1.04373e-05
-6.66007e-06
-1.79062e-07
-5.84292e-06
4.79146e-06
6.55241e-06
1.11577e-07
6.88401e-06
-6.84434e-06
-3.96721e-08
-5.88383e-08
-9.51622e-08
7.18771e-07
-5.90257e-06
5.1838e-06
-2.08116e-07
-9.04031e-06
2.16204e-06
4.89232e-07
-6.07676e-06
-6.58692e-06
6.48654e-06
1.00377e-07
6.5731e-06
-5.91093e-07
-3.07086e-06
-4.08368e-06
-9.20773e-06
6.82579e-07
-3.69274e-06
-1.0933e-06
2.68232e-08
6.77193e-06
-6.02778e-06
-6.48656e-06
-6.49742e-06
1.69097e-07
6.32832e-06
9.17313e-06
1.29603e-06
5.28538e-06
2.66095e-06
6.39725e-06
-2.84485e-06
6.68234e-06
-3.79103e-07
1.53196e-05
-1.12568e-05
-1.0482e-05
-3.35912e-06
-3.62317e-06
-8.43995e-08
7.12197e-06
-6.67229e-06
-4.49673e-07
6.74921e-06
1.5618e-07
7.81231e-07
-6.47244e-06
-4.80185e-06
5.52062e-06
6.54545e-06
5.67349e-08
5.14179e-06
2.28034e-06
6.86642e-06
2.55542e-07
6.85972e-06
-6.76133e-06
-9.83929e-08
-3.08694e-06
-4.37629e-06
-3.08672e-07
6.31819e-06
1.17675e-07
-7.27672e-06
5.68831e-06
-4.48068e-06
-9.51308e-08
1.44205e-07
5.5456e-06
-6.02437e-06
4.78768e-07
1.01339e-06
5.84444e-06
9.31063e-06
-9.05591e-06
3.24006e-06
4.10265e-06
-6.57024e-06
6.49292e-06
7.73155e-08
-1.51845e-07
-3.81709e-06
2.08803e-06
1.72906e-06
-6.8411e-08
7.13822e-06
-7.13822e-06
8.05717e-06
-4.67065e-06
-3.38652e-06
-5.91965e-06
-9.91217e-07
4.98996e-06
2.36808e-06
6.82697e-06
3.94528e-08
-6.43722e-06
6.3869e-06
4.04906e-08
-6.42739e-06
5.23026e-06
7.27672e-06
-7.22903e-06
1.84977e-07
8.49868e-06
-7.52298e-06
6.58182e-06
-7.01413e-06
6.53457e-06
-1.47669e-07
5.89874e-06
-6.38264e-06
6.34898e-06
3.36601e-08
2.99088e-07
5.11981e-06
-5.4189e-06
-5.80978e-06
4.79753e-06
-4.35439e-07
6.07732e-06
8.23648e-07
-5.80039e-08
-5.61635e-06
-9.81166e-07
-8.40776e-06
5.32083e-06
8.79003e-09
-6.39916e-06
-6.81511e-06
-3.23169e-07
9.1298e-06
-4.93423e-06
6.5641e-08
-1.181e-06
7.25879e-06
-6.07779e-06
-3.10099e-06
-7.16099e-07
6.3578e-06
-6.42684e-06
6.90386e-08
-6.58182e-06
6.52407e-06
2.82948e-06
4.04412e-06
-6.87359e-06
6.84198e-06
-1.29638e-06
5.68887e-07
6.07292e-06
6.71051e-06
6.45204e-07
7.31779e-07
8.86867e-07
-7.13476e-06
1.58816e-07
-5.66538e-06
6.44661e-06
-3.28092e-06
3.9635e-06
6.06457e-07
-5.95279e-06
5.34634e-06
-4.78212e-08
1.27235e-07
-5.93953e-06
-6.7525e-06
6.62904e-06
1.23453e-07
-6.47856e-06
6.74401e-07
4.2253e-06
3.83187e-06
-3.64534e-06
7.47618e-06
-3.83084e-06
7.49113e-06
-6.99369e-06
-4.97442e-07
1.85444e-07
4.61209e-06
-6.42869e-06
-6.87333e-08
6.52493e-06
9.64067e-09
3.22708e-06
-1.13906e-06
8.30614e-06
-7.46054e-06
5.95801e-06
9.10798e-07
3.76353e-07
-6.62539e-06
1.00904e-06
1.02172e-07
-5.76755e-06
7.39897e-06
-5.97831e-06
6.03226e-06
-3.67239e-07
-5.74187e-06
6.10911e-06
-6.49332e-06
6.76164e-06
-8.04427e-08
-9.83672e-06
7.85602e-07
-4.14682e-08
6.36934e-06
1.23584e-07
-6.01576e-06
-6.60033e-06
6.57236e-06
2.79661e-08
7.89454e-06
-4.58319e-06
-3.31135e-06
-5.5394e-06
-4.98557e-07
6.03796e-06
-1.49717e-08
-6.52874e-06
1.40371e-07
-7.05354e-07
6.97183e-06
-6.26648e-06
-6.39182e-06
6.4235e-06
-9.2747e-06
-1.35446e-06
-8.9725e-06
8.74785e-06
2.24655e-07
5.12206e-06
2.60539e-06
5.99647e-06
5.37306e-07
-6.53378e-06
6.3713e-06
-2.62365e-07
5.13762e-06
2.56549e-06
-4.5463e-06
1.44531e-06
-6.43818e-06
5.59371e-06
-6.36375e-06
-8.64394e-06
8.61253e-06
3.14121e-08
7.81083e-06
-6.26819e-06
6.36799e-06
-1.90066e-08
3.91426e-07
-5.93877e-06
5.54734e-06
-9.60203e-08
-8.54792e-06
7.71796e-06
-7.71796e-06
-3.51096e-06
6.62111e-06
-3.11015e-06
-6.374e-06
6.374e-06
6.51615e-06
-5.76085e-06
-7.55302e-07
6.06328e-06
1.4405e-06
6.79182e-06
-5.57147e-06
6.7156e-06
-7.55634e-08
-5.25781e-06
-8.42537e-07
6.10035e-06
-8.5385e-06
8.56735e-06
-2.88521e-08
7.87217e-06
-4.73848e-06
-3.13369e-06
1.15124e-06
5.64058e-06
-8.62789e-06
8.58472e-06
4.31637e-08
-1.24618e-09
-6.27496e-08
8.51418e-06
-8.45143e-06
-8.59486e-06
8.59486e-06
-1.02436e-07
6.46024e-06
9.22258e-06
-8.5978e-06
-6.2478e-07
-8.63321e-06
8.57046e-06
8.62589e-06
-8.58183e-06
-4.40612e-08
-6.28531e-06
-1.41532e-07
7.35109e-06
-9.79771e-08
8.56839e-06
-8.47041e-06
8.57109e-06
-8.58719e-06
1.61033e-08
-6.47788e-06
8.52662e-06
-1.24395e-08
-6.59228e-06
6.53327e-06
5.90096e-08
-8.52495e-06
8.55557e-06
-3.062e-08
6.52983e-06
-6.36073e-06
-8.6104e-06
8.51242e-06
6.60324e-06
-2.09819e-06
3.14437e-06
4.11442e-06
-4.77456e-06
-3.6332e-06
-8.58044e-06
8.58044e-06
-8.6198e-06
-1.34083e-08
7.97982e-06
-1.4628e-06
-6.51703e-06
-5.62659e-06
3.82133e-06
2.15163e-07
8.54028e-06
-8.56667e-06
2.63877e-08
6.28657e-06
-6.27976e-06
-6.80556e-09
8.80636e-06
-8.57774e-06
-2.28613e-07
8.49601e-06
4.42629e-08
8.48039e-06
8.79987e-08
-1.73937e-08
-6.3566e-06
-7.86506e-06
4.32901e-06
3.53605e-06
-6.34761e-06
6.3881e-06
8.52285e-06
-2.68345e-08
8.95417e-07
5.78692e-06
4.58276e-06
-1.75328e-06
-8.59792e-06
-1.24851e-08
7.0126e-06
4.16168e-06
-7.09197e-06
-1.07961e-06
-8.75712e-06
6.39633e-06
-6.43291e-06
3.6585e-08
-2.96385e-07
-8.67612e-06
6.66061e-06
-7.45971e-08
7.40657e-06
-5.06818e-06
-2.33838e-06
-6.41029e-06
8.53578e-06
-8.53578e-06
6.1053e-06
7.71141e-08
-6.18241e-06
6.57328e-06
-8.55372e-06
8.54254e-06
1.11885e-08
8.49339e-06
-8.57511e-06
8.17151e-08
5.40826e-06
-7.15695e-06
-2.27765e-08
-8.4935e-06
8.51628e-06
8.47394e-06
-8.49672e-06
-2.83943e-07
9.03179e-06
-6.78785e-06
7.35119e-06
-7.67631e-06
5.32451e-06
-1.34988e-07
8.74752e-06
7.35765e-07
3.79075e-06
6.96189e-08
7.91021e-06
-2.2568e-08
6.84692e-06
-6.82435e-06
-5.81122e-08
-8.5743e-06
-5.35852e-08
7.03675e-06
-7.0354e-07
-6.33321e-06
-8.51718e-06
8.51718e-06
5.00332e-06
-4.30807e-06
-8.58781e-06
8.56536e-06
2.24579e-08
6.5583e-06
-6.5583e-06
6.38622e-06
-9.96495e-08
8.52885e-06
-8.54254e-06
1.36948e-08
-8.23132e-06
2.25027e-06
8.72435e-09
-6.33533e-06
6.32661e-06
6.87072e-06
-5.74357e-08
8.54692e-06
7.89765e-08
5.1844e-06
8.85206e-07
-6.0696e-06
8.57292e-06
-4.63085e-08
6.65884e-06
-6.65884e-06
8.51838e-06
-8.4888e-06
-2.95761e-08
-6.51308e-06
6.46557e-06
4.75182e-08
8.58359e-06
-8.55752e-06
-2.60662e-08
-8.53125e-06
8.53125e-06
1.26756e-06
5.97237e-06
2.01139e-07
-6.17351e-06
-8.58851e-06
8.56619e-06
2.23149e-08
-3.15526e-08
-6.43061e-06
6.39416e-06
2.16928e-09
7.98294e-06
-1.51054e-06
-6.4724e-06
5.51488e-06
8.49677e-06
-8.52018e-06
2.34129e-08
6.56613e-06
7.0158e-06
9.89097e-08
6.00639e-06
8.7126e-06
-1.65687e-07
8.46896e-06
2.78126e-08
6.23131e-06
-6.23131e-06
-3.28092e-06
8.61658e-06
-8.54896e-06
-2.61472e-08
8.54446e-06
-8.51227e-06
-3.21951e-08
1.66908e-07
-8.70666e-06
8.53975e-06
8.94681e-07
-8.61264e-06
-8.57296e-06
8.55822e-06
1.47416e-08
6.18903e-06
-6.1862e-06
-2.82591e-09
6.51615e-06
-5.75131e-06
5.75131e-06
8.4861e-06
-1.71393e-08
-6.36329e-06
-5.93877e-06
5.99647e-06
6.60132e-06
-6.86961e-08
-1.92832e-08
6.76021e-07
-8.42795e-06
8.5431e-06
-8.54577e-06
2.66585e-09
2.04795e-07
5.98423e-06
1.97116e-07
6.83964e-06
6.43703e-06
-5.08157e-08
-8.55377e-06
8.54392e-06
9.85324e-09
8.4784e-06
-8.50196e-06
2.3555e-08
-8.5462e-06
-4.16142e-08
8.52293e-06
-8.50057e-06
-2.23579e-08
6.43509e-06
1.23211e-07
8.52833e-06
3.70242e-08
-1.06671e-08
8.50912e-06
3.47956e-08
-1.30704e-09
-6.30233e-06
-8.63884e-06
9.09126e-08
-6.39359e-06
6.39359e-06
7.80808e-08
7.90486e-06
-6.49656e-06
1.23875e-06
4.46083e-08
8.52648e-06
3.54077e-07
-6.14093e-06
5.78685e-06
5.90298e-08
8.53583e-06
8.14297e-06
-8.88174e-06
6.42863e-06
2.30205e-07
8.47394e-06
-6.59982e-08
6.03837e-06
-6.21796e-06
3.176e-08
6.12528e-06
-9.40887e-07
-8.4951e-06
8.4951e-06
-8.54067e-06
-4.78392e-08
5.76085e-06
-5.97261e-06
2.11765e-07
-8.53583e-06
6.29182e-06
-6.2831e-06
8.52413e-06
4.20651e-08
-8.52816e-06
-7.58379e-06
5.27719e-06
-8.56446e-06
8.55025e-06
1.42146e-08
5.82477e-06
5.46529e-07
6.33533e-06
3.86616e-08
-8.46774e-06
8.52567e-06
-5.79344e-08
-6.43089e-06
6.37357e-06
5.73213e-08
-8.49485e-06
2.71091e-08
6.40787e-06
-1.37116e-08
3.56559e-07
-6.62455e-06
6.26799e-06
8.4928e-06
-8.53034e-06
3.7541e-08
6.90875e-06
-7.23191e-06
8.49187e-06
-8.49094e-06
-9.23923e-10
-5.42878e-06
5.42878e-06
-6.68317e-06
6.68317e-06
-8.48215e-06
-1.26984e-08
-3.9635e-06
4.69926e-06
-8.50634e-06
8.49383e-06
1.25033e-08
6.61911e-08
8.51425e-06
5.30572e-06
-4.69926e-06
-5.30572e-06
5.60481e-06
5.63281e-06
-6.47534e-06
7.75986e-06
-4.59934e-06
-3.16053e-06
-8.53681e-06
-3.61522e-08
-1.23265e-06
-5.60481e-06
6.83746e-06
8.52614e-06
3.20781e-08
-6.45939e-06
5.98688e-06
8.55058e-06
-8.53332e-06
-1.72578e-08
-8.50047e-06
-6.40151e-06
6.42944e-06
-1.98123e-07
-2.2734e-08
8.54558e-06
8.50997e-06
-6.32661e-06
-8.71273e-06
-5.11057e-06
6.53378e-06
-1.42321e-06
-8.46296e-06
-3.05431e-08
8.49879e-06
1.03311e-08
4.95689e-06
-5.06279e-06
1.05897e-07
9.71985e-09
5.97261e-06
-6.21189e-06
2.39278e-07
3.90927e-06
3.98527e-06
-8.53299e-06
-3.14771e-08
-6.46172e-06
8.46143e-06
-8.45439e-06
-7.04215e-09
8.52282e-06
2.74305e-08
-8.54744e-06
8.53824e-06
9.19854e-09
6.53318e-06
6.43509e-06
-8.48311e-06
8.46461e-06
1.84962e-08
8.54298e-06
-8.53926e-06
-3.72678e-09
-6.35281e-06
6.42863e-06
8.47907e-06
-8.47907e-06
3.36943e-08
8.55103e-06
-5.35383e-06
-1.14273e-06
8.49694e-06
-4.13696e-09
-1.09372e-06
5.80518e-06
-4.71146e-06
8.47513e-06
-8.46779e-06
-7.33922e-09
2.59027e-08
8.50988e-06
8.45975e-06
-8.46724e-06
7.48348e-09
-8.55851e-06
-8.52782e-06
-5.13442e-06
7.30508e-09
8.53523e-06
-8.92324e-09
-8.50453e-06
8.51346e-06
-8.47967e-06
8.46121e-06
1.84664e-08
-8.53263e-06
-1.48008e-08
-6.45958e-06
-6.23816e-06
2.0202e-08
8.52397e-06
1.42652e-08
-8.472e-06
8.46843e-06
3.5761e-09
-8.47784e-06
3.18105e-08
8.44603e-06
8.53007e-06
2.05125e-08
-8.50369e-06
-2.96386e-08
-6.20248e-06
-2.88329e-08
8.52588e-06
-8.53115e-06
5.26999e-09
8.4751e-06
-8.48402e-06
-8.49273e-06
8.48103e-06
1.17068e-08
8.4716e-06
-8.46473e-06
-6.86638e-09
6.38789e-06
5.69532e-09
8.52872e-06
1.42624e-08
-8.51686e-06
-2.2392e-08
-8.54814e-06
6.42944e-06
-8.47613e-06
8.45926e-06
1.68635e-08
5.62576e-06
-5.993e-06
-8.45222e-06
8.48388e-06
-3.16588e-08
8.47837e-06
-8.49101e-06
1.26328e-08
-2.06302e-08
-8.5244e-06
-8.23497e-09
-2.20704e-08
-7.5243e-06
5.33893e-06
-1.4526e-08
8.4751e-06
-1.39936e-08
-9.0146e-09
-8.5316e-06
7.20561e-09
3.26129e-06
7.1697e-06
-1.0431e-05
-1.76706e-06
8.52596e-06
-8.26821e-11
-8.50988e-06
1.56558e-08
8.50153e-06
-8.51512e-06
-1.60279e-08
-6.40922e-06
-8.5401e-06
8.49536e-09
2.97207e-08
8.49913e-06
-1.37802e-09
4.02745e-08
-8.39553e-06
8.35525e-06
8.53771e-06
-8.53333e-06
-4.37417e-09
-6.52347e-06
1.16964e-06
8.52126e-06
-8.50632e-06
-1.49405e-08
-8.52689e-06
-6.32218e-06
-3.33428e-07
8.46979e-06
-8.46311e-06
-6.68279e-09
4.44157e-08
-8.40352e-06
8.3591e-06
-8.53558e-06
8.51966e-06
1.59189e-08
-6.45386e-06
6.4008e-06
5.30612e-08
7.53716e-09
-8.53552e-06
-4.5758e-09
-6.4888e-06
1.3457e-06
5.14309e-06
-8.52435e-06
-1.12339e-08
8.53491e-06
2.79363e-09
-8.52091e-06
-1.24203e-08
-3.38632e-08
-8.53604e-06
5.16411e-10
-6.13784e-06
-7.18579e-07
6.85642e-06
4.90244e-06
3.58333e-08
-8.50153e-06
6.40206e-06
-2.84884e-08
-8.46931e-06
8.46931e-06
-1.63805e-08
8.5308e-06
4.10831e-09
-6.74877e-09
1.32057e-08
1.35989e-08
8.53404e-06
-3.23263e-09
5.04964e-09
8.53183e-06
-8.53189e-06
5.93579e-11
6.15867e-06
-6.15867e-06
-8.51423e-06
8.49593e-06
1.82956e-08
8.48347e-06
-8.47475e-06
-8.72006e-09
-1.19633e-08
8.52869e-06
5.34634e-09
8.52912e-06
2.71827e-09
-3.20302e-09
8.53e-06
8.52162e-06
-8.52635e-06
4.72698e-09
-8.60383e-06
-8.49439e-06
-1.98385e-08
6.56711e-06
-8.05734e-08
8.51396e-06
7.66431e-09
7.14032e-08
8.52046e-06
-8.51111e-06
-9.35886e-09
-6.08687e-06
6.08687e-06
4.75767e-08
8.48367e-06
-8.468e-06
8.48157e-06
-1.35734e-08
8.51865e-06
1.81838e-09
6.90539e-08
6.36798e-06
8.50856e-06
-8.50538e-06
-3.1768e-09
-8.44151e-06
-2.64853e-08
8.48441e-06
-8.49136e-06
6.94162e-09
8.50306e-06
5.4978e-09
8.51879e-06
1.03226e-08
-8.4408e-08
-8.42013e-06
-1.46073e-08
-7.50104e-07
-5.72234e-06
8.47118e-06
-8.47939e-06
8.21155e-09
2.55568e-07
5.9031e-06
8.50747e-06
-8.49951e-06
-7.96707e-09
-7.55789e-09
-1.44766e-07
-7.08159e-06
7.22636e-06
-6.16242e-06
6.23233e-06
-6.99072e-08
-8.43149e-06
8.43419e-06
-2.69135e-09
8.4977e-06
9.77084e-09
-8.47261e-06
-5.29799e-06
8.55928e-06
8.50101e-06
-8.48892e-06
-1.20891e-08
-8.50924e-06
8.50947e-06
-2.30623e-10
8.48471e-06
-8.47701e-06
-7.70301e-09
-8.24165e-07
-7.27743e-06
8.10159e-06
8.4923e-06
8.70238e-09
-8.43791e-06
6.41725e-09
8.50222e-06
-8.49132e-06
-1.09058e-08
6.38789e-06
-6.54164e-06
6.54164e-06
8.49907e-06
-8.48306e-06
-1.60115e-08
-1.63776e-08
8.50248e-06
-1.33098e-08
-6.39712e-06
8.48711e-06
1.19601e-08
-8.50848e-06
-1.58654e-08
-8.42501e-06
8.42947e-06
-4.45294e-09
8.5093e-06
4.65616e-09
1.43448e-07
8.4239e-06
-1.8016e-09
8.50138e-06
2.15491e-08
6.36782e-06
3.42367e-08
9.92891e-10
-8.4333e-06
8.28085e-09
6.49649e-07
2.3543e-08
2.74673e-07
8.47675e-06
-8.4847e-06
7.95156e-09
-8.41608e-06
8.42585e-06
-9.76582e-09
1.50041e-07
-6.37662e-06
6.22658e-06
1.13974e-06
-6.64212e-06
5.50238e-06
2.43561e-06
6.01999e-06
-6.01999e-06
8.47091e-06
-8.47091e-06
-6.97906e-06
3.9075e-09
-8.48701e-06
6.50118e-06
8.49954e-06
1.91018e-08
-1.60447e-06
-2.98071e-06
4.58518e-06
-8.42832e-06
1.22366e-08
-8.43322e-06
-2.73432e-07
3.60389e-06
-5.94752e-06
2.34363e-06
-5.83541e-09
5.7468e-08
8.42641e-06
2.48349e-08
6.38303e-06
-8.51148e-06
1.78864e-08
8.47722e-06
5.4076e-06
-6.59809e-06
1.19049e-06
5.50428e-06
-1.90038e-06
-1.05725e-08
-8.4691e-06
8.51272e-06
-8.45525e-06
-8.48845e-06
-8.40496e-06
8.39698e-06
7.98134e-09
1.85134e-09
8.49198e-06
8.46214e-06
8.7773e-09
7.73224e-06
-5.13051e-06
-2.60173e-06
-3.07545e-08
6.45939e-06
8.48972e-06
1.33402e-08
7.72936e-06
-8.55352e-06
5.72552e-08
8.42621e-06
-9.99649e-09
-8.46613e-06
-8.41474e-06
9.77581e-09
-6.18252e-06
2.01006e-08
6.49474e-06
-5.2069e-06
-1.28784e-06
8.44711e-06
-8.44785e-06
7.43798e-10
-9.78645e-09
2.43677e-06
-3.42584e-06
-3.21067e-06
6.63651e-06
8.46277e-06
-8.47581e-06
1.3039e-08
6.74739e-06
-6.67027e-06
-2.44994e-08
6.45958e-06
-5.54756e-06
3.94309e-06
8.45427e-06
-8.46278e-06
8.5085e-09
8.50282e-06
-8.44556e-06
-6.36938e-06
2.10715e-07
-6.3936e-06
6.38612e-06
7.47084e-09
6.21189e-06
-6.35666e-06
1.34424e-07
8.42114e-06
-6.44797e-06
6.25749e-06
-2.2766e-07
8.48976e-06
-8.47946e-06
-1.02998e-08
6.61112e-06
-6.31688e-06
-2.94242e-07
8.46214e-06
-5.10124e-09
-8.4669e-06
-6.25917e-06
2.10009e-08
7.8423e-07
4.80776e-06
-5.59199e-06
-8.39423e-06
8.38513e-06
9.10539e-09
8.4489e-06
2.94771e-08
-5.35167e-06
-1.12367e-06
6.13295e-08
8.42338e-06
8.47584e-06
-8.49556e-06
1.97189e-08
8.46534e-06
-1.56547e-08
-8.43873e-06
-6.62319e-06
-1.11587e-06
8.48009e-06
1.76083e-08
9.01394e-06
-1.84423e-06
-5.11366e-08
8.47155e-06
-8.42041e-06
8.46798e-06
7.86384e-09
-8.40613e-06
1.1895e-08
-8.43078e-06
-6.01676e-08
-1.62147e-08
8.35848e-06
-8.34226e-06
1.09772e-08
8.46809e-06
8.50392e-06
-8.44259e-06
-8.47722e-06
-3.22849e-08
6.46172e-06
-8.82302e-09
6.40993e-06
-3.32641e-07
-6.07729e-06
8.58438e-08
6.32409e-06
-8.37039e-06
8.35417e-06
-8.47605e-06
-1.83383e-08
5.38069e-06
1.11405e-06
-3.22108e-08
6.55679e-06
-6.52458e-06
-5.42945e-06
-4.54406e-06
5.32829e-06
-7.08512e-06
8.74696e-07
6.21043e-06
8.46455e-06
6.4399e-09
-8.47423e-06
8.39099e-08
8.42881e-06
8.45181e-06
-8.45305e-06
1.23917e-09
8.47029e-06
-8.4451e-06
-2.51936e-08
-8.48176e-06
5.52107e-09
-1.2307e-08
-6.39959e-06
6.4119e-06
1.2156e-09
8.47981e-06
-5.88387e-06
1.72164e-06
-8.47058e-06
8.46588e-06
4.6953e-09
-8.38244e-06
8.37246e-06
9.98097e-09
8.12265e-08
6.93264e-06
-6.7315e-06
5.07795e-06
-1.21058e-07
-4.37983e-08
8.47629e-06
-8.4325e-06
-7.55956e-06
4.13373e-06
8.4616e-06
7.49343e-09
-8.47222e-06
8.47042e-06
2.18793e-08
-7.91818e-06
7.99916e-08
7.83819e-06
1.32019e-08
-8.39565e-06
8.45365e-06
-8.44475e-06
-8.89407e-09
-2.66739e-07
8.50396e-06
-8.23723e-06
-1.26379e-08
-1.73651e-06
7.9574e-06
-6.2209e-06
-6.36938e-06
-7.0736e-06
8.45897e-06
-4.70031e-09
7.40603e-08
8.42876e-06
8.24577e-06
8.53857e-06
-8.53199e-06
-6.57447e-09
-1.14594e-09
-6.40869e-06
6.40984e-06
-8.4638e-06
8.45807e-06
5.73329e-09
1.71026e-07
-6.37351e-06
6.20248e-06
8.47501e-06
-8.47145e-06
-3.5592e-09
-6.56258e-06
6.53037e-06
8.45007e-06
-8.44357e-06
-6.49636e-09
2.36805e-08
8.44661e-06
-9.04001e-08
8.49511e-06
-8.4693e-06
9.11595e-08
-6.24858e-06
8.46876e-06
-8.46734e-06
-1.42188e-09
8.46469e-06
4.94734e-09
-8.46806e-06
8.42139e-06
1.79201e-08
-8.43931e-06
2.01555e-09
8.46988e-06
-8.4462e-06
-2.0056e-08
-6.41402e-06
6.43407e-06
4.54671e-06
-6.69174e-06
2.14502e-06
-1.42926e-06
-6.48892e-06
-6.21317e-06
-1.40081e-06
-5.45834e-06
-8.45948e-06
4.86245e-08
8.41085e-06
-6.45326e-06
6.41402e-06
3.92434e-08
-1.96315e-06
-5.1938e-06
-8.4552e-06
7.54901e-06
-8.43769e-06
8.4525e-06
-1.48097e-08
-7.05237e-06
7.01728e-07
6.35064e-06
6.72811e-06
-5.17061e-06
-1.5575e-06
-8.46715e-06
1.69126e-08
8.45024e-06
6.42329e-06
-6.34363e-06
1.76569e-08
8.43599e-06
-8.46809e-06
8.57641e-09
8.46073e-06
8.45963e-06
2.74817e-08
-1.39295e-09
-8.46584e-06
-2.72264e-08
-8.44335e-06
-8.44615e-06
6.41579e-06
-6.3358e-06
-3.59288e-08
1.8076e-06
5.59897e-06
-5.80071e-06
5.80071e-06
7.32875e-08
8.43063e-06
-9.59669e-06
-7.80901e-06
7.80786e-06
8.47105e-06
6.41099e-06
-6.3655e-06
-8.45792e-06
8.43069e-06
-7.14834e-06
7.31936e-06
8.4521e-06
-8.44472e-06
-7.3796e-09
1.01815e-08
8.46099e-06
-8.55986e-06
6.44195e-06
-6.462e-06
-8.45562e-06
1.41037e-08
3.18306e-06
8.47633e-06
-8.46602e-06
-1.03092e-08
-8.47081e-06
8.45249e-06
-8.44544e-06
-7.04936e-09
-8.45104e-06
-8.4403e-09
8.43328e-06
-8.40745e-06
-6.46531e-06
7.77258e-06
8.44521e-06
-8.44241e-06
-2.80347e-09
-1.48789e-08
8.43627e-06
-6.45326e-06
5.59194e-06
-6.06127e-06
4.69327e-07
-1.03978e-05
1.03978e-05
8.46704e-06
8.4687e-06
-2.1432e-08
1.41129e-08
-8.4665e-06
8.49566e-06
-2.9155e-08
8.44994e-06
-8.44289e-06
-7.05437e-09
-7.0126e-06
6.67918e-06
2.59427e-08
8.44561e-06
-8.46708e-06
2.28029e-08
8.44428e-06
-8.44238e-06
8.46061e-06
-8.44925e-06
-6.48365e-06
-8.46005e-06
2.81699e-08
8.43188e-06
-6.49339e-06
-1.81844e-08
6.33855e-06
-6.38736e-06
4.88028e-08
8.43887e-06
-8.44598e-06
7.11189e-09
1.5603e-07
-8.45991e-06
8.44592e-06
1.39893e-08
8.45416e-06
-6.19801e-06
-6.15377e-06
-1.05398e-07
8.46532e-06
-8.46532e-06
-4.37118e-08
6.4316e-06
-8.46073e-06
8.44837e-06
-8.44133e-06
-7.03953e-09
8.46421e-06
-4.7054e-08
-8.45352e-06
-6.29171e-06
-7.89885e-07
-6.44757e-06
5.05769e-06
-5.64924e-06
5.91543e-07
-1.26735e-06
-5.46122e-06
6.72857e-06
8.43295e-06
-8.41064e-06
5.46075e-06
-6.37662e-06
-1.81443e-08
-8.449e-06
8.4529e-06
-8.44589e-06
-7.0093e-09
6.49396e-06
-6.52549e-06
-1.78887e-06
-1.17742e-06
2.96629e-06
-6.73694e-06
6.79289e-06
6.51745e-06
-6.4316e-06
-2.57335e-08
-6.31995e-06
6.34569e-06
-2.89293e-08
-6.27254e-06
6.30147e-06
2.12513e-08
-6.57005e-06
6.5488e-06
6.00493e-08
-6.59644e-06
6.53639e-06
3.0418e-08
-6.46546e-06
6.43504e-06
-1.29705e-08
-6.32713e-06
6.3401e-06
-1.54416e-08
-6.32188e-06
6.33733e-06
3.80833e-06
-2.56539e-06
-1.24294e-06
5.61476e-06
4.09935e-08
8.4353e-06
6.19061e-06
-6.22303e-06
3.24205e-08
1.98827e-08
-8.44959e-06
8.42971e-06
8.47137e-06
-8.47137e-06
8.35921e-06
-2.21742e-09
-8.35699e-06
-2.79861e-08
-8.42993e-06
8.44775e-06
-8.44041e-06
-7.34826e-09
-5.25004e-06
-6.89458e-06
-1.57788e-07
5.53604e-06
1.07508e-06
8.46456e-06
-8.45331e-06
-1.12564e-08
-6.44355e-06
6.69404e-06
2.79523e-08
8.44193e-06
-4.64282e-06
-2.91674e-06
6.12084e-08
6.06632e-06
-6.12753e-06
-4.33142e-06
-7.31368e-07
-1.45312e-06
-9.01102e-07
2.35422e-06
6.3539e-06
6.35502e-06
6.63366e-06
6.63333e-06
6.58738e-06
6.50425e-06
-2.95244e-08
-6.37267e-06
6.4022e-06
6.37492e-06
-7.09993e-09
-2.51197e-06
8.45046e-06
-8.43058e-06
-2.08357e-07
6.79699e-06
-8.47635e-06
-5.78783e-06
7.15277e-06
8.34776e-06
7.61283e-09
-8.35537e-06
8.48241e-06
-1.70926e-08
-8.46428e-06
3.02615e-08
8.43402e-06
-6.3834e-06
-6.39959e-06
6.39971e-06
-6.42923e-06
-5.82466e-06
7.04031e-06
-1.21566e-06
-1.5081e-08
-8.44497e-06
4.40853e-06
-5.50225e-06
1.39589e-08
-8.45871e-06
-8.44881e-06
-2.24814e-06
-3.29942e-06
-8.43364e-06
-1.59553e-08
6.47544e-06
2.01945e-06
4.92187e-06
8.43959e-06
-8.4331e-06
-6.49097e-09
6.43554e-06
-4.26382e-06
-2.17172e-06
-3.06282e-06
1.6097e-06
-3.54935e-06
7.68308e-06
-3.07897e-06
6.40128e-06
-3.32231e-06
2.48062e-09
8.46029e-06
-8.40253e-06
8.44545e-06
-8.45039e-06
4.93622e-09
-4.78429e-06
2.04184e-06
2.74246e-06
-2.82449e-08
-6.37077e-06
6.39901e-06
8.84734e-06
-3.91921e-06
-4.92813e-06
6.37538e-09
8.35283e-06
-1.83848e-06
-2.94582e-06
-6.17301e-06
6.23421e-06
5.26496e-06
3.49796e-07
-6.14067e-06
-1.29131e-08
-6.38005e-06
6.39296e-06
6.59173e-06
-6.38694e-06
-3.92539e-06
-1.48704e-06
5.41243e-06
-8.4325e-06
8.43498e-06
-2.47596e-09
-6.23501e-06
6.32617e-06
8.44192e-06
-8.44738e-06
-5.64274e-06
-1.57966e-07
-8.50452e-06
8.47233e-06
-4.40386e-06
6.38575e-09
8.44612e-06
7.36891e-06
-4.0726e-06
-3.29631e-06
6.23967e-06
-1.18197e-06
6.96706e-06
-9.00737e-07
6.38926e-06
-6.4175e-06
8.43034e-06
-8.43083e-06
4.89181e-10
6.39742e-06
-6.41034e-06
7.75789e-09
-8.42612e-06
8.41836e-06
-3.55524e-06
-8.48625e-07
1.34043e-08
-6.47871e-06