/*--------------------------------*- C++ -*----------------------------------*\
  =========                 |
  \\      /  F ield         | OpenFOAM: The Open Source CFD Toolbox
   \\    /   O peration     | Website:  https://openfoam.org
    \\  /    A nd           | Version:  12
     \\/     M anipulation  |
\*---------------------------------------------------------------------------*/
FoamFile
{
    format      ascii;
    class       volVectorField;
    location    "0.3";
    object      U;
}
// * * * * * * * * * * * * * * * * * * * * * * * * * * * * * * * * * * * * * //

dimensions      [0 1 -1 0 0 0 0];

internalField   nonuniform List<vector> 
4428
(
(0.00228193 0.000864439 1.01427e-16)
(-0.00231217 0.000951288 -9.0381e-17)
(-0.00207929 0.000952275 0)
(-0.00217315 0.0009134 0)
(0.00209504 0.00172631 8.16374e-17)
(0.00214391 0.00176082 3.20125e-21)
(-0.00207613 0.00117082 0)
(-0.00233193 0.000833701 1.46407e-16)
(0.00222422 0.000898348 -2.4906e-16)
(0.00228955 0.000676167 9.95354e-17)
(-0.00210534 0.000738806 -1.73326e-16)
(0.00214908 0.000880329 -1.76859e-16)
(-0.00238523 0.000521227 -2.03654e-16)
(-0.000756651 0.00268937 -9.58134e-17)
(0.00224616 0.000875064 0)
(0.00204239 0.00075858 0)
(0.00230238 0.000824609 0)
(-0.00210732 0.000735688 0)
(-0.00240099 0.000520111 0)
(0.0022681 0.000882089 0)
(0.00081125 0.000664019 -4.48031e-16)
(-0.00229965 0.00088404 -1.77698e-16)
(-0.00217665 0.000919486 0)
(-0.00234937 0.000816962 0)
(-0.00228888 0.000872186 2.26612e-17)
(-0.00217872 0.000815926 0)
(-0.00219432 0.00114307 1.03354e-16)
(0.00219574 0.000734644 2.07799e-16)
(0.00204404 0.001002 0)
(-0.00240548 0.000575639 0)
(0.00221629 0.00057104 0)
(-0.0023276 0.000884717 -1.842e-16)
(0.00226278 0.000719664 -9.00176e-17)
(-0.00235471 0.00113438 -2.77414e-16)
(-4.07941e-06 0.00310008 4.69759e-17)
(-0.00232381 0.00090162 1.99858e-16)
(-0.00226944 0.00113056 -4.44191e-21)
(0.0021146 0.00285158 1.27039e-17)
(-0.000360837 0.00268155 -2.62227e-17)
(-0.00217771 0.000951121 0)
(0.00227507 0.00081984 0)
(0.00209786 0.000686923 0)
(0.0021876 0.000748491 9.243e-17)
(-0.00236479 0.000769719 1.66054e-16)
(0.00228343 0.000739897 0)
(0.0018691 0.000693674 0)
(0.00219323 0.0020841 -9.97809e-17)
(-0.00217623 0.00104318 2.03139e-16)
(-0.00220193 0.000912343 2.24454e-16)
(-0.00227313 0.000992469 0)
(0.00227411 0.000941964 0)
(0.00205759 0.000962376 1.88119e-16)
(0.00231161 0.000660249 -9.13165e-17)
(0.00208516 0.000981657 0)
(0.00212236 0.000888197 -1.39781e-17)
(0.00135389 0.000657183 0)
(0.00201128 0.000945685 -9.29906e-17)
(-0.00223701 0.000746022 0)
(0.00189964 0.00203158 1.82956e-16)
(0.00222181 0.000775609 -1.82007e-16)
(0.00232204 0.000894754 1.67093e-16)
(-0.00231294 0.000742022 0)
(0.00203138 0.000813117 2.79947e-16)
(-0.00232188 0.000880061 9.26962e-17)
(-0.00231907 0.000903409 0)
(0.0021382 0.000940699 0)
(-0.00236802 0.000784008 1.73154e-16)
(-0.00219129 0.00093178 -1.85816e-16)
(0.00220336 0.000790424 -1.82182e-16)
(-0.00223325 0.000971315 -3.61901e-16)
(-0.0023764 0.000751956 -9.16111e-17)
(0.00224738 0.00101945 2.12648e-16)
(0.00241887 0.00104391 5.80489e-17)
(-0.00216367 0.000897293 4.46943e-17)
(0.00227553 0.000791823 1.96645e-16)
(-3.94272e-05 0.00307629 -1.8329e-16)
(0.00230682 0.0010508 0)
(0.00237473 0.000909887 0)
(-0.00209398 0.00117682 -1.18141e-16)
(0.00164023 0.000787121 -4.38675e-21)
(0.00202693 0.00103485 -1.97534e-16)
(-0.0023632 0.000753062 0)
(0.00220382 0.00104745 -1.8106e-16)
(0.0022056 0.000903592 -1.72062e-16)
(0.00230682 0.000819936 3.18298e-16)
(-0.00250953 0.00082086 -2.54682e-16)
(-0.000283207 0.0034347 1.15139e-16)
(-0.00235886 0.000863 0)
(-0.00231606 0.000888409 -9.6032e-17)
(0.00212178 0.000930481 2.04738e-17)
(0.00227652 0.000691323 8.36634e-17)
(0.00233488 0.000836028 -1.59365e-16)
(-0.00233101 0.000929051 0)
(-0.00229197 0.000851543 0)
(-0.00231761 0.000904293 9.81672e-17)
(-0.00225648 0.000933453 1.67116e-16)
(0.00226951 0.000904423 1.13528e-16)
(-0.00232561 0.000882829 -1.199e-16)
(-0.00237881 0.00074623 9.28686e-17)
(0.00214733 0.00112983 0)
(0.00216548 0.000974499 -2.25137e-17)
(0.00223431 0.000872015 0)
(0.00228865 0.000810211 0)
(0.00207237 0.000773427 -1.87983e-16)
(0.00198589 0.000918624 -1.03699e-16)
(0.00211195 0.00102151 2.49104e-21)
(0.00221478 0.000911422 1.90322e-16)
(-0.00227337 0.00107719 -1.22452e-16)
(0.00226269 0.000906161 -1.20819e-16)
(0.00219203 0.00105831 0)
(0.00222346 0.000747279 1.64693e-16)
(0.00223758 0.000861151 -1.948e-16)
(-0.00216079 0.000885937 2.66258e-21)
(0.00213404 0.000808155 1.65961e-16)
(-0.00127679 0.00080469 1.1554e-16)
(-0.00236662 0.000730549 1.80229e-16)
(-0.000523601 0.00298522 0)
(0.000920475 0.000715541 5.24741e-17)
(-0.00239617 0.000807103 8.87634e-17)
(0.0023768 0.000912744 -1.12857e-16)
(0.0023458 0.00091541 2.11525e-16)
(-0.00209657 0.00118505 2.41271e-16)
(0.00154808 0.00253247 -1.96891e-16)
(0.00224323 0.000725771 -3.03613e-16)
(-1.89204e-05 0.00310039 1.78754e-16)
(-0.00232296 0.000879206 0)
(-0.00235578 0.000803378 -2.72252e-16)
(0.00214546 0.000882159 9.95071e-17)
(-0.00231997 0.000943157 -3.04094e-16)
(-0.00231971 0.000900754 9.66748e-17)
(-0.0023741 0.000757989 -1.87129e-16)
(-0.00227613 0.000935329 0)
(0.00228564 0.00091156 2.24121e-16)
(0.00219954 0.00081696 0)
(0.00222921 0.000872359 0)
(0.00238192 0.00102929 6.54183e-21)
(0.0023182 0.000965471 -2.43663e-16)
(-0.00236182 0.000739723 -1.82385e-16)
(-0.00232465 0.000902943 -1.83547e-16)
(-0.00230338 0.000933579 1.43946e-16)
(-0.00228289 0.00108938 -1.23703e-16)
(-0.00232862 0.000842269 -9.67465e-17)
(0.0021945 0.000876785 0)
(0.00220495 0.000903892 -1.99425e-16)
(0.00231204 0.000869237 0)
(0.00217541 0.000832192 9.6763e-17)
(0.00232621 0.00103145 1.28471e-16)
(-6.33596e-05 0.00220182 -9.13931e-17)
(0.00243381 0.000695231 2.88882e-16)
(7.3342e-06 0.00309253 4.54397e-17)
(-0.00232146 0.000878753 -1.99509e-16)
(-0.00151681 0.000668603 1.00282e-16)
(0.00216775 0.000730091 -9.60127e-21)
(0.00241227 0.000839966 -2.48618e-16)
(-0.00231817 0.000900599 2.91589e-16)
(0.00235883 0.000885643 0)
(0.0021234 0.00143616 -1.77124e-16)
(0.00229863 0.000693814 -9.48465e-17)
(0.00223579 0.000833702 -1.78764e-16)
(-0.00234087 0.000774833 -9.12327e-17)
(-0.00230876 0.000957588 1.95444e-16)
(0.00225596 0.000890057 0)
(0.00240834 0.000766956 0)
(-0.000814101 0.000363596 -2.17176e-16)
(-0.00246161 0.00101436 1.19561e-16)
(-0.00236357 0.000746084 0)
(-0.00231529 0.0008493 0)
(0.00240449 0.000818051 0)
(-0.00231154 0.000899532 1.9001e-21)
(-0.00233949 0.000997005 9.36769e-17)
(-0.00237316 0.000788522 -9.3798e-17)
(0.00233207 0.000918954 3.94498e-21)
(-0.00233745 0.000885197 0)
(0.0021174 0.000887671 0)
(0.00214488 0.00277379 -1.16371e-17)
(-0.00248904 0.00103072 2.29072e-16)
(0.00233816 0.00085037 0)
(0.00205946 0.00101459 2.14585e-16)
(0.00218188 0.000910589 2.17936e-16)
(-0.00248855 0.000995666 1.14316e-16)
(-0.000255842 0.0031298 -7.10694e-21)
(-0.00223872 0.000912768 1.75076e-16)
(-0.00233902 0.000822009 1.91948e-16)
(0.00213085 0.000825516 0)
(-0.00232057 0.00087903 3.00567e-16)
(-0.00231944 0.00106052 -9.52155e-17)
(0.00230221 0.000889121 0)
(-0.00231517 0.00089945 0)
(0.00195177 0.000860253 3.43565e-16)
(0.00225023 0.000991584 0)
(0.00224162 0.000821235 0)
(0.00234697 0.00110652 2.58465e-17)
(0.00228196 0.000816407 0)
(0.00232733 0.000953219 -3.67866e-16)
(-0.00226228 0.00104694 0)
(-0.00224912 0.00103101 -1.80864e-16)
(-0.00224947 0.0010282 2.7092e-16)
(-0.00221315 0.00101062 8.88763e-17)
(0.00315456 0.00182459 1.48754e-16)
(-0.000693683 0.00331246 0)
(0.00228883 0.00104188 2.1376e-16)
(-0.0023366 0.000846661 -1.94077e-16)
(0.00179284 0.000959559 -1.90306e-16)
(-0.00234843 0.000770671 0)
(0.00208984 0.000800511 -1.76629e-16)
(0.00226399 0.000795453 -2.98054e-18)
(-0.00230695 0.000901104 9.32568e-17)
(-0.00051155 0.00358349 -1.77904e-16)
(-0.00110461 0.0031047 1.11838e-17)
(0.00153589 0.000809569 0)
(0.00231225 0.000986273 0)
(0.00246516 0.000893719 0)
(0.0023075 0.000970687 5.95268e-21)
(-0.00233291 0.000823184 0)
(0.00225089 0.000864539 0)
(-0.00227604 0.00102324 -1.40087e-16)
(-0.0022508 0.00100799 1.83782e-16)
(3.26625e-05 0.00309669 -1.84689e-16)
(-0.00218263 0.000817537 1.99296e-16)
(-0.00223957 0.00102194 -4.53586e-17)
(0.00230968 0.000957168 1.95361e-16)
(0.0023929 0.000841538 -6.15103e-17)
(-0.00230301 0.000894944 1.85467e-16)
(0.0023412 0.00100316 0)
(-0.00226092 0.0010298 0)
(-0.00232076 0.000880088 0)
(-0.00236126 0.000895393 -1.08725e-16)
(0.00224179 0.000810077 -1.93041e-16)
(0.00214399 0.000893007 3.72587e-21)
(-0.00231468 0.000899652 0)
(-0.00232302 0.000844642 9.83228e-17)
(-0.00142457 0.0028271 0)
(0.00194956 0.00114217 0)
(0.000333962 0.00340833 8.61725e-17)
(0.00218335 0.000870743 5.7462e-17)
(-0.00227287 0.000999562 0)
(-0.00226107 0.00101718 0)
(-0.00225915 0.00101138 1.88215e-16)
(-0.0022688 0.00100845 -1.86171e-16)
(-0.00234425 0.000782748 2.97765e-16)
(-0.000228488 0.000560745 5.13886e-17)
(-0.00233981 0.000890758 -5.90052e-17)
(-0.00223906 0.00100951 6.2369e-17)
(0.00227015 0.000887067 2.23733e-17)
(-0.00232914 0.000829909 -9.62571e-17)
(-0.000639093 0.00230906 -1.01154e-16)
(-0.00230412 0.00109692 1.89324e-16)
(-0.00232989 0.000831729 1.92813e-16)
(0.00268574 0.00179664 0)
(-0.000260858 0.00233935 0)
(-0.00242475 0.00100893 6.12573e-21)
(0.00220161 0.000876626 2.04393e-16)
(0.0023395 0.000944063 -1.05648e-16)
(-0.00225537 0.00100904 1.81886e-16)
(0.00203451 0.000761027 -1.31316e-16)
(0.000394227 0.000270449 1.07918e-16)
(-0.00226292 0.00101202 -3.65583e-16)
(5.52119e-05 0.00307657 0)
(-0.00263447 0.000966231 -3.66779e-17)
(-0.00227663 0.00100909 -2.1176e-16)
(-0.00226837 0.00100971 1.90017e-16)
(-0.000801305 0.000407589 2.17217e-16)
(-0.00232054 0.000850027 0)
(0.00241924 0.000547059 1.23011e-16)
(-0.00225912 0.00100649 -9.37835e-17)
(-0.00230631 0.000896962 -1.00071e-16)
(0.00229014 0.000829938 0)
(-0.0022642 0.00101133 0)
(-0.00156138 0.00342343 1.37274e-16)
(-0.00239348 0.000807724 -1.83735e-16)
(0.00224608 0.000777237 0)
(0.00235101 0.00104779 2.37175e-16)
(0.00224905 0.000896238 1.23123e-17)
(-0.000480347 0.0024967 2.58437e-16)
(-0.00232227 0.000877817 0)
(0.00218186 0.000917592 1.9813e-16)
(0.00226711 0.000873298 -2.63559e-16)
(-0.00232503 0.000843521 1.94295e-16)
(0.0023767 0.00111142 0)
(0.000378982 0.0002683 -1.10465e-16)
(-0.00248084 0.00103926 -2.31787e-22)
(-0.000431327 0.0031954 9.63391e-17)
(0.00225981 0.000837614 0)
(-0.00234022 0.000792205 -2.99173e-16)
(0.00208454 0.00118774 3.93341e-16)
(0.00205142 0.00120982 -9.12428e-17)
(0.00228072 0.000891124 -1.32949e-17)
(0.0022787 0.000766257 -1.26245e-16)
(0.00227648 0.000897528 1.94435e-16)
(0.00230967 0.000847413 0)
(-0.00254743 0.000788442 1.43576e-16)
(-0.00240304 0.000781228 -1.87089e-16)
(-0.00227681 0.00099644 -7.47187e-19)
(0.00216459 0.00102192 0)
(0.00211886 0.000901676 2.14669e-16)
(0.000727413 0.000275004 2.31985e-16)
(-0.00230802 0.000861931 1.95532e-16)
(-0.00225753 0.00100474 2.0796e-16)
(-0.00230644 0.00102913 0)
(-0.00142888 0.00334311 1.96758e-16)
(-0.00232844 0.000848984 5.92326e-21)
(0.00214746 0.000787226 1.14693e-16)
(-0.00231821 0.000854654 0)
(-0.00227066 0.00100733 -1.18781e-17)
(-0.00227026 0.00101454 0)
(-0.00226934 0.00101132 -1.8591e-16)
(-0.00234066 0.000898563 0)
(-0.000299153 0.00340039 -1.19589e-16)
(0.00155607 0.000851619 -3.44555e-16)
(0.00226283 0.00111288 1.25595e-16)
(-0.00232503 0.000850122 9.79699e-17)
(0.00222053 0.000875446 0)
(0.00237437 0.00109404 -1.26564e-16)
(-0.000394359 0.00338438 -1.90451e-16)
(0.00140277 0.000472108 -2.23905e-16)
(0.00225047 0.000921286 0)
(0.00231861 0.0010061 0)
(0.00223038 0.000948395 -1.87614e-16)
(-0.00233735 0.000803615 0)
(-0.00230912 0.000881191 1.96568e-16)
(-0.000568626 0.00372289 -6.17594e-18)
(-0.00244868 0.00102358 -1.0149e-16)
(-0.00215336 0.000829069 6.10868e-17)
(0.00220627 0.000854014 3.89319e-16)
(-0.00164725 0.00509191 -1.46073e-16)
(0.00377662 0.00148513 -1.97872e-16)
(0.00214408 0.000943491 -2.12582e-16)
(-0.00229611 0.000883593 9.64295e-17)
(-0.0022951 0.00105939 -1.21772e-17)
(-0.00225117 0.00102123 -1.89492e-16)
(0.00224637 0.000856186 2.09787e-16)
(-0.00229753 0.000881785 0)
(-0.00231926 0.000856771 9.90837e-17)
(-0.00263046 0.000959343 1.50955e-16)
(-0.00233194 0.00109332 0)
(-0.00229859 0.00103419 0)
(0.00240125 0.00108134 -1.23281e-16)
(0.00213572 0.000834052 0)
(-0.00231352 0.000883208 0)
(0.00215863 0.000797767 0)
(-0.00227364 0.00101453 1.18322e-17)
(-0.00229716 0.00100708 7.54728e-19)
(0.00210002 0.000722408 0)
(0.00227656 0.000872668 1.92888e-16)
(-5.81921e-05 0.00309453 0)
(0.00222829 0.000762517 0)
(-0.0023259 0.000852801 4.92533e-17)
(-0.00234156 0.000841859 -3.0148e-16)
(0.000244408 0.00138669 0)
(-0.00230412 0.00088202 -1.93416e-16)
(-0.00237357 0.00053633 9.23809e-17)
(-0.00236399 0.000938083 -4.24111e-21)
(-0.00248664 0.000850446 -2.43393e-16)
(-0.00263081 0.000941172 1.51158e-16)
(-0.00227416 0.0010573 0)
(-0.0023429 0.000814207 2.02113e-16)
(-0.00230098 0.000884062 1.00294e-16)
(0.00226257 0.000852735 0)
(-0.00228078 0.00080019 1.62544e-16)
(-0.00230791 0.000869695 -2.68737e-16)
(4.36802e-05 0.00301488 0)
(-0.00226566 0.00100584 -2.80434e-16)
(-0.00235017 0.000939563 0)
(-0.00232652 0.000867574 0)
(0.00230588 0.000861458 2.03115e-16)
(-0.00231728 0.000848134 1.01384e-16)
(0.00201345 0.000740289 2.1478e-16)
(0.00231033 0.000922736 -2.03929e-16)
(-0.0016339 0.000785094 0)
(-0.00246043 0.000830407 0)
(-0.00230485 0.000882997 0)
(0.00225815 0.000875824 -2.12707e-16)
(0.00226197 0.000947348 0)
(0.00226832 0.000871873 0)
(-0.0024698 0.00107198 -2.9936e-16)
(0.000287017 0.00306816 2.17981e-16)
(-0.00228608 0.0010502 1.92277e-16)
(0.00231235 0.000718131 -2.15586e-16)
(-1.75021e-05 0.00161235 -6.19428e-17)
(-0.00231663 0.000903653 0)
(-0.00231454 0.000972993 2.99752e-16)
(-0.00222068 0.00103044 -1.80338e-16)
(0.000207035 0.00235668 1.08286e-16)
(0.00236623 0.000519148 0)
(0.00246393 0.000666723 1.14706e-16)
(0.00218087 0.000925898 1.77799e-16)
(-0.000473358 0.000361452 2.10733e-16)
(-0.00230587 0.000862731 -9.03922e-17)
(0.00227798 0.000897978 0)
(0.00141349 0.000528399 0)
(0.00192953 0.000604698 3.86487e-16)
(-0.00230735 0.000885689 0)
(0.00239177 0.000797457 -1.07228e-16)
(-0.00245349 0.000655739 1.26092e-16)
(-0.00232065 0.00088308 9.5811e-17)
(0.00219866 0.000883235 -1.95165e-16)
(-0.00256879 0.000971203 -1.35977e-16)
(-0.00214338 0.000891317 1.84897e-16)
(-0.00252649 0.00116285 1.01007e-16)
(-0.00172361 0.000669545 -1.08942e-16)
(-0.00232773 0.000878963 0)
(-0.00231653 0.000881531 0)
(-0.000126589 0.00116018 0)
(-2.43643e-05 0.003009 -2.50977e-16)
(-0.00248462 0.0008894 0)
(-0.00234537 0.00114179 -8.72294e-17)
(0.00224065 0.000880524 3.76159e-16)
(0.00215621 0.00091233 -1.11174e-16)
(0.00224273 0.000812962 3.79525e-16)
(0.00227298 0.000963788 -5.49147e-17)
(0.00226005 0.000859096 -5.54974e-21)
(-0.00229703 0.000924169 -4.91285e-17)
(-0.00230467 0.000891193 -9.63658e-17)
(-0.000187133 0.00355932 5.9738e-18)
(-0.00231179 0.000888611 -1.95294e-16)
(-0.00229712 0.000958746 -5.15026e-17)
(0.00216296 0.000936527 0)
(-0.00231545 0.000887721 -9.7586e-17)
(-0.0024309 0.000890066 -3.58915e-16)
(-0.00223803 0.00100641 -1.39393e-17)
(-0.00232884 0.000872057 0)
(-0.00234664 0.000773466 4.83491e-17)
(-0.00231585 0.000857819 -9.87658e-17)
(0.00246168 0.00108537 -2.08721e-16)
(-0.00229931 0.000909985 -9.94706e-17)
(0.000299194 0.00339999 6.96536e-18)
(0.00220827 0.000808355 2.44309e-17)
(-6.5799e-05 0.00338074 -1.98856e-16)
(-0.00256679 0.00102891 2.82347e-16)
(-0.00223926 0.000754716 -3.98525e-16)
(0.00226009 0.000872493 1.03053e-16)
(-0.00257202 0.0010295 1.25934e-16)
(0.000348655 0.00177634 8.11325e-17)
(-0.0022914 0.000907719 1.97978e-16)
(0.0021922 0.000758887 1.76669e-16)
(-2.50561e-05 0.00331827 0)
(-6.52518e-05 0.00299145 -2.83921e-16)
(-0.00230091 0.000949482 -1.57226e-16)
(0.00222251 0.000759553 -5.1958e-17)
(-2.59906e-05 0.0033096 7.9026e-19)
(0.00270288 0.00107359 9.76695e-17)
(-0.00213549 0.000849775 2.95293e-16)
(-0.0023224 0.000882221 -5.09879e-17)
(-0.00234989 0.000844582 0)
(-0.00242045 0.000902631 2.29028e-16)
(0.00222949 0.000899939 -2.02294e-16)
(-0.00230485 0.000893986 -9.68002e-17)
(0.00223766 0.000874197 0)
(-5.40834e-06 0.00329085 -2.01869e-16)
(-0.00241278 0.000933836 1.20767e-16)
(0.00258911 0.00232735 -3.6632e-16)
(0.00228785 0.00086938 0)
(-1.4724e-05 0.00329156 0)
(0.00235003 0.000944041 5.95902e-21)
(9.26192e-06 0.00328238 -2.02107e-16)
(5.16224e-06 0.00328797 4.01896e-16)
(-0.00229731 0.000900524 4.98487e-17)
(-0.000204158 0.00338701 1.97704e-16)
(-8.79618e-06 0.00327964 0)
(-2.13039e-05 0.00329528 2.01152e-16)
(-0.00229973 0.000896356 0)
(0.0026339 0.00149636 0)
(1.02911e-05 0.00328657 0)
(-5.15543e-06 0.003286 -2.01436e-16)
(-0.00229102 0.000937163 0)
(-1.1539e-05 0.00328867 4.05266e-16)
(-0.00231727 0.000876806 0)
(-4.88916e-06 0.00328803 -2.02416e-16)
(-0.00230117 0.000895822 -2.9318e-16)
(-5.85215e-06 0.00327755 0)
(-0.0022785 0.000943173 9.67016e-17)
(-0.001032 0.00376642 -4.71356e-17)
(0.00239554 0.00105196 2.50253e-16)
(0.00242069 0.000911528 0)
(6.55934e-07 0.0032835 1.45268e-20)
(-1.27649e-05 0.00329008 -1.99386e-16)
(-0.00233058 0.000785687 -8.51737e-17)
(0.00220311 0.000983373 -2.05741e-16)
(0.00202818 0.00081887 0)
(0.00224736 0.000859133 3.10259e-16)
(-2.48793e-06 0.00328658 2.01995e-16)
(-0.00228978 0.000900433 0)
(-8.07251e-05 0.0033233 2.0056e-16)
(-2.26283e-06 0.0032794 0)
(-5.70709e-06 0.0032843 -2.04876e-16)
(-0.00231001 0.000900265 0)
(0.00226615 0.000940145 1.95263e-16)
(-0.0023169 0.000886187 2.68361e-21)
(9.01344e-07 0.00327847 2.02881e-16)
(0.00229659 0.000840063 -4.19344e-16)
(0.000328766 0.00197957 0)
(-1.17222e-05 0.00328979 0)
(0.00254733 0.00117608 1.46622e-16)
(0.00222646 0.000783359 0)
(-0.000258815 0.00352406 0)
(-0.00231219 0.00087568 -3.52286e-16)
(-8.80916e-05 0.00336595 0)
(-0.00230373 0.000893303 9.75559e-17)
(-0.0019544 0.00166707 -5.25367e-17)
(-0.002293 0.000938041 2.01109e-16)
(8.03951e-07 0.0032787 -4.04617e-16)
(-0.00235754 0.000849625 5.41565e-17)
(-0.00227603 0.000942414 1.92961e-16)
(-4.05056e-06 0.00328279 0)
(-8.1559e-06 0.00327791 -1.98245e-16)
(0.0021451 0.000739893 0)
(1.00963e-06 0.00328494 -2.04202e-16)
(1.82285e-06 0.00328385 0)
(-0.000153382 0.00341363 2.01272e-16)
(1.96977e-05 0.00300173 -2.272e-16)
(-0.00219565 0.00091624 1.17404e-16)
(-4.76875e-05 0.0033292 9.81712e-20)
(0.00163224 0.000481075 0)
(-0.00234476 0.000862493 7.9984e-17)
(-0.00220616 0.000950633 4.68848e-17)
(6.74252e-06 0.00327657 4.05007e-16)
(-1.30208e-05 0.00328856 2.01598e-16)
(-0.00235488 0.000891012 -4.65992e-16)
(2.07122e-06 0.00327991 2.02679e-16)
(0.0021 0.000690094 6.78926e-21)
(-1.65441e-05 0.0032821 2.00598e-16)
(-0.00232227 0.000881881 0)
(-0.00229075 0.000918586 5.12173e-17)
(-1.83914e-06 0.00328334 -1.45938e-20)
(0.00223154 0.00107566 2.10078e-16)
(-0.00231301 0.000899789 -1.0284e-16)
(-0.00227963 0.000936796 -8.98983e-17)
(-8.11346e-06 0.00328745 -2.0152e-16)
(0.00224651 0.000879713 3.51589e-18)
(-6.54656e-07 0.0032847 -1.45978e-20)
(-0.00232605 0.000879674 4.80858e-17)
(1.06267e-05 0.00327892 0)
(-0.00231591 0.000876043 0)
(-1.89724e-05 0.00328739 -2.01462e-16)
(1.64789e-06 0.00328207 2.02261e-16)
(0.00224895 0.000929693 -2.45276e-17)
(-0.00236423 0.000804933 2.19717e-16)
(-1.69642e-05 0.00328252 1.99768e-16)
(4.12744e-06 0.00327867 0)
(-0.00229619 0.000930572 0)
(-0.00228489 0.00093959 1.534e-16)
(-0.00235605 0.00075727 0)
(-0.00011492 0.0020394 -1.08307e-16)
(-6.34284e-07 0.00328438 2.02706e-16)
(-0.00227974 0.000935896 -1.4537e-16)
(-0.00230115 0.000890376 0)
(-0.00228792 0.000872084 5.30119e-17)
(-3.09525e-05 0.00329409 1.97003e-16)
(2.25382e-07 0.0032797 -1.46715e-20)
(-0.00230389 0.000881558 -5.1412e-17)
(0.00133451 0.000160773 -2.18992e-16)
(-2.91978e-05 0.00330119 -2.00422e-16)
(-9.17395e-06 0.003288 2.021e-16)
(4.71817e-06 0.00327975 2.02978e-16)
(-2.70579e-07 0.00328968 -2.00152e-16)
(0.00274081 0.00138628 -1.92044e-16)
(-1.91092e-05 0.00328268 -2.01105e-16)
(-0.00231921 0.000871375 0)
(-0.00224592 0.000801576 0)
(0.00215814 0.000817202 0)
(-4.9977e-06 0.00327948 -2.03566e-16)
(-0.00227676 0.000942526 2.48138e-16)
(0.00221959 0.000828856 -1.57148e-16)
(-0.00220946 0.00089292 2.71349e-16)
(-0.00230445 0.000892541 -1.96913e-16)
(-0.00230755 0.000891135 -1.01261e-16)
(-0.00248608 0.0011707 -1.00453e-16)
(-9.05062e-06 0.00328265 -4.05785e-16)
(8.91694e-06 0.00327953 8.46293e-20)
(-0.00233102 0.000951763 -5.80037e-17)
(-0.00230857 0.000927756 4.59952e-17)
(-0.00230789 0.000897762 -5.05259e-17)
(1.30392e-05 0.00328353 -2.02612e-16)
(2.83377e-06 0.0032795 4.10217e-16)
(-1.58437e-05 0.00328299 -2.02957e-16)
(2.84384e-06 0.00328301 -7.95351e-19)
(-0.00230135 0.000914292 4.91287e-17)
(-1.09911e-05 0.00328132 0)
(1.55229e-05 0.0032819 -2.0378e-16)
(1.0735e-05 0.00327832 2.02746e-16)
(1.33839e-05 0.0032837 3.50541e-20)
(-0.00231169 0.00086431 1.02068e-16)
(-1.85474e-05 0.0033013 0)
(-0.00231097 0.000878893 -2.00613e-16)
(-0.00234808 0.000853324 0)
(0.0022608 0.000866098 -2.22455e-16)
(-1.20277e-06 0.00328161 -1.57901e-18)
(0.00217699 0.000862161 1.979e-16)
(2.03718e-06 0.00328332 -1.45315e-20)
(-0.000202286 0.00336837 0)
(-0.00013382 0.00332499 -1.99267e-16)
(-0.00231093 0.000882388 0)
(-0.00233003 0.000879174 -9.86546e-17)
(2.21886e-05 0.00327735 0)
(-0.00229125 0.000889669 -2.1407e-16)
(-0.00230496 0.000903976 -1.06353e-16)
(0.00224916 0.000893098 2.13738e-16)
(1.26834e-06 0.0032787 -2.0308e-16)
(-1.84528e-05 0.00328311 -2.03156e-16)
(-0.00231517 0.000928068 5.55528e-17)
(-3.48843e-06 0.00328375 -2.00303e-16)
(-0.00228178 0.000867847 3.11581e-16)
(-1.48318e-05 0.00328069 -2.02287e-16)
(4.70713e-06 0.00328245 -1.45599e-20)
(-0.00227438 0.00094943 -2.36554e-16)
(-2.01188e-05 0.00328235 2.00626e-16)
(0.00226523 0.000857309 0)
(-0.00230203 0.000900065 -5.02504e-17)
(-1.22937e-06 0.00328089 3.18885e-18)
(-0.0023146 0.000865638 1.00773e-16)
(-5.31094e-07 0.00328012 -1.6007e-18)
(-0.00230272 0.000884456 5.04597e-17)
(-0.00216946 0.000815316 0)
(8.55011e-06 0.00328233 -1.46303e-20)
(-0.00251284 0.00105809 3.00912e-16)
(1.96779e-06 0.00328407 2.04466e-16)
(0.00207 0.00106869 -5.87767e-17)
(-0.00217977 0.000985575 1.95202e-16)
(-7.20611e-07 0.00328205 2.04612e-16)
(0.00167889 0.000657507 2.15024e-16)
(-4.28812e-06 0.00328207 2.03317e-16)
(2.47586e-06 0.00328377 3.17264e-18)
(0.00192565 0.000702237 2.2723e-16)
(0.00206702 0.000717891 -2.12538e-16)
(0.00234846 0.000935911 0)
(-0.00244113 0.000993723 0)
(-1.85486e-05 0.00328225 -1.59104e-18)
(0.0021371 0.000809222 2.79967e-16)
(-1.78435e-05 0.00328073 -1.57969e-18)
(-0.00230789 0.000892602 -9.82414e-17)
(0.00208991 0.000729338 0)
(1.69045e-05 0.0032807 -4.05547e-16)
(2.7547e-06 0.00328134 -4.08063e-16)
(-0.00229495 0.000924701 0)
(-0.00231113 0.000862966 0)
(1.88374e-06 0.00328386 -4.05513e-16)
(-6.58123e-05 0.00331521 0)
(-0.00229904 0.000941354 -1.95477e-16)
(-4.42137e-05 0.00330025 -4.00508e-16)
(-0.00209717 0.00075374 0)
(0.00236089 0.000779145 5.24839e-17)
(2.59979e-07 0.00327797 -1.60737e-18)
(7.40208e-06 0.00328495 2.04307e-16)
(0.00179571 0.00111835 -7.03669e-18)
(8.71406e-07 0.00328131 -2.04789e-16)
(-0.00232486 0.000855437 1.57435e-16)
(-0.00241866 0.00112548 1.3898e-16)
(-1.99233e-05 0.00328173 2.01865e-16)
(-0.0023156 0.000864832 1.45746e-16)
(-3.5735e-06 0.00328283 2.0481e-16)
(-1.84427e-05 0.00328113 -2.02602e-16)
(-2.08756e-05 0.00328122 -2.01904e-16)
(-0.002286 0.000929272 0)
(-0.00231201 0.000868526 -4.98677e-17)
(-2.31973e-06 0.00328072 -7.9877e-19)
(1.90561e-05 0.00328187 0)
(-0.002283 0.0009247 1.98686e-16)
(-0.00230108 0.000868593 0)
(2.9673e-06 0.00327925 -2.03398e-16)
(-1.57658e-05 0.00329202 3.16226e-18)
(0.00224504 0.000872583 -2.14732e-16)
(2.92807e-06 0.00328183 -4.10846e-16)
(-0.0024775 0.00098433 3.41571e-16)
(-1.19462e-06 0.00328154 0)
(-1.09847e-06 0.00328427 2.02757e-16)
(-6.26577e-07 0.00328192 0)
(-1.81509e-07 0.00328338 2.02817e-16)
(2.36965e-06 0.00328103 -2.02304e-16)
(0.00195032 0.000750688 1.21376e-16)
(8.82243e-07 0.00328048 2.02446e-16)
(1.48858e-06 0.00328751 -1.46561e-20)
(-4.57877e-08 0.00328149 2.04799e-16)
(-2.16296e-05 0.0032819 4.04641e-16)
(-0.0023145 0.000883505 0)
(-0.00231137 0.00089194 -5.2527e-17)
(-1.87569e-05 0.00328155 0)
(-4.29547e-07 0.00328167 0)
(-2.16047e-06 0.00328038 -2.06609e-16)
(1.91545e-05 0.00328291 2.03096e-16)
(1.58077e-05 0.00328328 2.03861e-16)
(-0.00230748 0.000896041 2.57694e-16)
(1.70056e-05 0.00328141 2.03292e-16)
(-1.28551e-06 0.00328387 -2.04791e-16)
(-3.14808e-06 0.00328176 0)
(-8.56008e-07 0.00328152 -1.47048e-20)
(-0.00231217 0.000891178 1.00375e-16)
(1.89203e-05 0.0032818 0)
(1.78011e-05 0.00328091 2.03434e-16)
(-7.66723e-06 0.00328791 -2.05254e-16)
(-0.00231685 0.000864655 0)
(-3.53462e-08 0.00328159 0)
(0.00226643 0.000871555 -2.13229e-16)
(-4.1722e-07 0.00328375 1.59877e-18)
(-3.18554e-07 0.00328444 -3.98533e-19)
(-1.56039e-05 0.00327881 -7.92057e-19)
(-2.08779e-05 0.00328104 1.46004e-20)
(-1.6921e-05 0.00327995 7.92704e-19)
(-0.00229318 0.00098256 -1.24094e-16)
(-2.0156e-05 0.0032797 2.03608e-16)
(1.09182e-05 0.00327925 0)
(-1.97255e-05 0.0032801 2.0216e-16)
(-1.99643e-05 0.00328071 -2.02506e-16)
(-2.103e-05 0.00328201 -2.03446e-16)
(-0.00278797 0.00227993 -3.08457e-16)
(-0.00053154 0.000660089 -3.84297e-16)
(1.94623e-05 0.00328233 -2.03711e-16)
(-1.96217e-06 0.00328347 -2.03069e-16)
(2.28094e-07 0.00328423 -2.03023e-16)
(1.74565e-05 0.00328083 2.03496e-16)
(-0.00232325 0.000876412 -2.02472e-16)
(-2.2388e-05 0.00328022 2.02138e-16)
(-1.86897e-06 0.00328214 -2.02688e-16)
(-1.48954e-05 0.00328841 -4.03162e-16)
(-1.73914e-06 0.00328104 -1.60328e-18)
(2.07722e-05 0.00328083 2.02726e-16)
(0.00224897 0.000862887 2.13263e-16)
(-7.02924e-06 0.00328307 -2.02727e-16)
(1.28707e-06 0.00328149 -1.45887e-20)
(0.00239535 0.000990728 -2.63003e-16)
(-7.03384e-07 0.00328138 0)
(-1.49727e-06 0.00328148 0)
(-2.22185e-05 0.00328098 -4.06248e-16)
(-0.00231147 0.000887158 1.00716e-16)
(4.13e-07 0.00327959 -4.00488e-19)
(-2.58144e-05 0.00328208 2.12275e-19)
(0.00226555 0.0008308 1.41755e-17)
(-2.37314e-05 0.0032835 2.03073e-16)
(2.35082e-05 0.00328221 2.03046e-16)
(2.15011e-05 0.00328175 -2.02898e-16)
(5.42964e-06 0.00328134 -2.03469e-16)
(-2.52108e-05 0.00328238 1.45934e-20)
(-0.00240355 0.000862825 -2.15472e-16)
(-0.0019922 0.000780122 2.65476e-16)
(-2.11829e-06 0.0032784 -1.46736e-20)
(-1.39806e-06 0.0032833 -2.02587e-16)
(-0.00229055 0.00092925 5.11232e-17)
(2.08e-06 0.00327949 -1.47051e-20)
(-2.32429e-05 0.00328001 8.05139e-19)
(2.33678e-05 0.003281 -4.06037e-16)
(1.08332e-05 0.00327794 2.03831e-16)
(1.98841e-05 0.00328048 -2.03829e-16)
(1.95511e-05 0.0032812 -2.03823e-16)
(2.33283e-05 0.00328144 2.03123e-16)
(1.95151e-05 0.00328056 1.98676e-19)
(2.31533e-05 0.0032815 0)
(0.00226626 0.000856884 0)
(-1.88823e-05 0.00328167 2.04486e-16)
(-1.54495e-06 0.0032851 0)
(4.27686e-06 0.00328375 2.03734e-16)
(2.3203e-05 0.00328142 0)
(2.31069e-05 0.00328167 2.03191e-16)
(2.33992e-05 0.0032812 -9.919e-20)
(2.38272e-06 0.00328408 1.99361e-16)
(2.10394e-05 0.00328279 0)
(-6.24329e-06 0.00328473 0)
(-1.96539e-05 0.00328412 -2.04706e-16)
(-0.00230734 0.000889731 -2.47947e-21)
(2.06859e-05 0.00328129 0)
(-4.82237e-05 0.00333762 0)
(2.03147e-05 0.00328132 0)
(-0.00225043 0.000859012 1.57169e-16)
(1.59041e-06 0.00328366 -2.0284e-16)
(-1.46712e-05 0.00328857 2.04679e-16)
(2.12453e-05 0.00328315 -9.94036e-20)
(-0.00226721 0.000942713 5.56761e-17)
(-0.00229397 0.000931794 -5.08315e-17)
(1.85563e-05 0.00328265 -2.03817e-16)
(-5.66516e-06 0.00327624 0)
(-7.74742e-07 0.00328702 -2.03898e-16)
(1.88432e-05 0.00328283 1.46448e-20)
(2.3328e-05 0.00328109 -2.03657e-16)
(-2.09378e-06 0.00327375 4.05036e-16)
(0.00217485 0.000763165 -3.65592e-16)
(0.00225598 0.000870271 -4.30915e-16)
(-3.32473e-06 0.00328256 4.07246e-16)
(0.00223107 0.000881468 0)
(1.83904e-05 0.00328281 0)
(2.37162e-05 0.0032805 -3.96992e-19)
(-0.00234325 0.000926769 -1.84021e-16)
(-0.00230323 0.000939981 1.05904e-16)
(1.43583e-06 0.00328024 -1.00203e-19)
(1.85692e-05 0.00328307 2.03869e-16)
(1.97042e-06 0.00328151 -2.03128e-16)
(-0.00210642 0.00201123 1.02776e-16)
(1.75919e-05 0.00328272 7.96838e-19)
(-2.27483e-05 0.00328349 2.03299e-16)
(-1.89497e-06 0.00328587 2.04069e-16)
(-0.00262891 0.00134533 -2.01498e-16)
(1.81661e-05 0.00328371 0)
(-1.33829e-06 0.00328189 4.0157e-19)
(-5.06932e-06 0.00328487 -2.03103e-16)
(-0.00231209 0.000876654 0)
(0.0023132 0.000630472 3.85782e-16)
(-0.00227451 0.000940064 5.36675e-17)
(1.73852e-05 0.00328302 -7.96969e-19)
(2.45862e-06 0.00328259 -2.03827e-16)
(-2.02432e-05 0.00327958 -2.03654e-16)
(-0.00230263 0.000924132 3.04094e-16)
(1.74242e-05 0.00328413 -2.04087e-16)
(-2.65e-05 0.00328084 7.93012e-19)
(1.38532e-06 0.00328017 2.00589e-19)
(2.16299e-05 0.00328096 0)
(-5.6643e-07 0.00328659 0)
(2.19267e-05 0.00328073 0)
(2.30707e-06 0.0032825 0)
(-0.00230659 0.000876297 -5.05803e-17)
(-2.38695e-05 0.00327968 0)
(-1.60111e-06 0.00328172 0)
(0.00243991 0.00113194 1.57509e-16)
(1.45905e-06 0.00328266 0)
(-0.000131921 0.0034181 0)
(-6.32285e-07 0.00328638 4.08005e-16)
(1.16935e-06 0.00328021 0)
(0.00224461 0.000827903 -4.81143e-17)
(0.00225911 0.000877053 0)
(0.00205391 0.000982958 1.05923e-16)
(0.00221887 0.000805992 -2.06197e-16)
(2.56233e-06 0.00328124 -4.0722e-16)
(-0.00209523 0.000903151 0)
(1.03972e-06 0.00328271 -1.99179e-19)
(-0.00229091 0.000925757 -9.91575e-17)
(2.43127e-05 0.00328114 0)
(0.00112223 0.00128264 0)
(4.15741e-07 0.00328183 -4.02028e-19)
(2.19183e-06 0.00328979 -1.26933e-17)
(0.000842348 0.00202305 -7.05261e-18)
(2.16538e-05 0.00327919 0)
(2.61785e-06 0.00328169 0)
(-0.00230107 0.000903709 0)
(-1.08709e-06 0.00328325 4.06406e-16)
(-9.62876e-07 0.00328407 0)
(0.00225434 0.000864867 3.89234e-21)
(0.000640304 0.00189277 0)
(-1.10838e-07 0.00328205 4.1444e-19)
(-2.74265e-07 0.0032836 -2.04144e-16)
(1.64764e-06 0.00328128 -2.03124e-16)
(1.33996e-06 0.00328042 -4.02701e-19)
(6.04705e-07 0.00328078 0)
(1.25689e-06 0.00328537 1.47212e-20)
(0.0023018 0.000825549 0)
(-0.00230899 0.000902841 0)
(2.22481e-05 0.00328014 2.04208e-16)
(-0.00283561 0.00139815 0)
(2.09158e-06 0.00328025 0)