/*--------------------------------*- C++ -*----------------------------------*\
  =========                 |
  \\      /  F ield         | OpenFOAM: The Open Source CFD Toolbox
   \\    /   O peration     | Website:  https://openfoam.org
    \\  /    A nd           | Version:  12
     \\/     M anipulation  |
\*---------------------------------------------------------------------------*/
FoamFile
{
    format      ascii;
    class       surfaceScalarField;
    location    "0.01";
    object      phi;
}
// * * * * * * * * * * * * * * * * * * * * * * * * * * * * * * * * * * * * * //

dimensions      [0 3 -1 0 0 0 0];

internalField   nonuniform List<scalar> 
6438
(
-1.66316e-09
2.02836e-07
-2.01172e-07
-1.78134e-09
2.3554e-07
-2.33759e-07
-2.19757e-07
-3.70337e-08
2.5679e-07
2.07896e-07
-2.28683e-07
2.07874e-08
3.21758e-07
-2.51122e-07
-7.06364e-08
7.52722e-08
2.46486e-07
-2.47645e-07
2.78886e-08
-2.17676e-07
2.15894e-07
2.34657e-07
-2.81149e-07
4.64922e-08
2.18197e-07
-2.5498e-07
3.67834e-08
-2.11278e-07
2.56022e-07
-4.47442e-08
5.13867e-08
-2.32615e-07
1.81229e-07
-2.59145e-07
4.78671e-08
1.99877e-07
9.28925e-08
-2.92769e-07
1.88679e-07
-1.90342e-07
-9.92461e-09
2.20148e-07
-2.10224e-07
-2.78462e-07
2.69351e-07
9.1107e-09
-2.10547e-07
2.55076e-07
-4.45286e-08
-2.58505e-07
4.79579e-08
8.28625e-08
1.76004e-07
-2.58866e-07
-6.07843e-08
-3.94572e-08
1.00242e-07
-1.31347e-08
2.32012e-07
-2.18877e-07
-2.13558e-07
-3.53907e-08
2.48949e-07
-2.61586e-07
1.15393e-07
1.46193e-07
-2.2848e-07
2.15345e-07
-2.02443e-07
2.4726e-07
-4.4817e-08
-2.45372e-07
3.18137e-08
2.34993e-07
-1.83607e-07
-2.12827e-07
-3.81813e-08
2.51009e-07
-2.55869e-07
5.34264e-08
1.98195e-07
-2.46774e-07
4.8579e-08
9.6647e-10
-2.42078e-07
2.41111e-07
2.35893e-07
-2.36784e-07
8.90176e-10
-2.34143e-07
4.01424e-08
1.94e-07
-3.17712e-07
5.10933e-08
2.66619e-07
2.22717e-07
-2.2175e-07
2.23632e-07
-1.57366e-08
1.45823e-07
2.03723e-07
-3.49546e-07
-7.03073e-08
2.70184e-07
-2.07798e-07
2.291e-07
-2.13022e-08
-2.43051e-07
2.40599e-07
2.45198e-09
-1.00994e-07
1.83857e-07
2.16668e-07
1.52877e-09
-2.6026e-07
2.55056e-07
5.20369e-09
2.33558e-07
-3.53636e-08
-1.70844e-07
1.6092e-07
-3.02266e-07
5.11443e-08
2.29024e-07
2.2117e-08
-2.51141e-07
-1.7971e-07
-5.44326e-08
-3.25618e-08
-2.15041e-07
2.44398e-07
-2.93578e-08
-1.6129e-07
2.30603e-07
-6.9313e-08
2.32072e-07
-2.32072e-07
7.22682e-08
1.7696e-07
2.30506e-08
-2.00011e-07
1.02806e-07
4.94045e-08
-1.52211e-07
1.96382e-07
3.95222e-08
-2.35904e-07
1.9023e-07
-7.48367e-08
-1.10122e-07
-1.92144e-07
-1.8813e-09
2.04369e-07
-2.02488e-07
-2.52875e-07
2.52875e-07
-2.61151e-07
2.63354e-07
-2.2027e-09
1.05992e-08
1.948e-07
-2.05399e-07
6.62035e-10
-2.38917e-07
2.38255e-07
2.21544e-07
-2.20882e-07
-2.41238e-07
2.84108e-08
-2.4183e-07
-1.84298e-08
-2.06378e-07
2.27146e-07
-2.0768e-08
2.30987e-08
1.99122e-07
-2.22221e-07
-2.44446e-07
2.35261e-07
9.18481e-09
2.38438e-07
-2.38438e-07
2.21944e-07
1.27124e-08
-1.45185e-07
-1.09795e-07
2.06757e-07
4.45624e-08
-2.51319e-07
-2.0368e-07
-3.93705e-08
1.80793e-07
1.40404e-07
-3.21197e-07
-2.79546e-07
1.78551e-07
-1.78093e-07
-1.01453e-07
2.43849e-07
-3.70921e-08
1.4692e-07
-4.41133e-08
1.99758e-07
2.16927e-08
-2.2145e-07
-2.46109e-07
-1.5042e-08
-3.62332e-08
-6.03016e-08
-1.92574e-07
2.67098e-07
-2.67098e-07
-1.76696e-07
-6.775e-08
-1.72014e-08
-3.00511e-07
-2.30256e-07
2.29747e-07
5.09473e-10
8.29994e-09
-2.34117e-07
2.25817e-07
-2.569e-08
2.25448e-07
2.30485e-07
5.40863e-09
-2.40947e-07
-3.7515e-08
-2.43213e-07
2.48885e-07
-5.67184e-09
2.53482e-07
-1.41658e-07
-1.11824e-07
2.28491e-07
-2.20191e-07
5.00486e-09
2.55745e-07
-1.29944e-07
-1.25801e-07
1.447e-07
1.08782e-07
2.34988e-07
-2.34988e-07
-1.80046e-07
2.57839e-07
-7.77928e-08
-2.26178e-07
1.11372e-08
-3.10066e-08
-1.82908e-07
2.13915e-07
-2.12105e-07
8.42497e-09
-2.27528e-07
4.74818e-08
1.94586e-07
4.22942e-08
-2.36881e-07
-1.5983e-08
2.10569e-07
-2.05067e-07
2.36759e-07
-3.16919e-08
-2.16469e-07
8.67052e-09
1.50154e-07
1.0559e-07
2.25708e-07
-4.44797e-08
9.52433e-09
2.22547e-07
-1.95515e-07
-1.65899e-08
2.03677e-07
4.45522e-08
-2.48229e-07
-1.12651e-07
-9.80903e-08
2.10741e-07
1.48544e-07
-1.97578e-08
-1.28786e-07
-2.42078e-07
4.96499e-08
2.41037e-07
-2.90687e-07
-1.12786e-07
5.20015e-08
2.41506e-07
5.75348e-09
2.62753e-07
-1.36803e-07
-1.2595e-07
8.9206e-08
1.73547e-07
2.42034e-07
-3.8357e-08
2.98631e-07
-1.52807e-07
-2.20685e-07
1.12513e-09
2.1956e-07
-3.16195e-07
3.12982e-08
2.84897e-07
-3.79917e-09
-2.20175e-07
2.23974e-07
2.41238e-07
1.38184e-08
-1.86436e-07
1.84555e-07
-2.22574e-07
2.26959e-07
-4.38552e-09
2.25837e-07
-2.29636e-07
2.32969e-07
-2.32969e-07
2.28483e-07
7.05711e-09
2.29621e-07
-5.26613e-08
2.26574e-07
-2.15975e-07
-1.99166e-07
1.68159e-07
2.23223e-09
2.19673e-07
-2.21906e-07
2.58637e-07
-1.79884e-07
-7.87535e-08
-2.38917e-07
-3.63953e-09
2.80873e-09
-2.20484e-07
-2.1975e-07
1.33719e-08
2.27958e-09
2.20437e-07
2.13367e-07
-1.90269e-07
-2.19899e-07
1.48327e-08
2.22814e-07
-6.14665e-09
-8.09712e-09
1.94129e-07
-1.86032e-07
1.53953e-07
1.04684e-07
-2.28928e-07
4.96688e-08
1.79259e-07
2.31736e-07
-1.13267e-09
-3.0815e-07
2.74238e-08
2.80726e-07
-3.25147e-09
-2.19063e-07
2.22314e-07
1.45167e-07
3.37651e-09
1.38771e-08
2.17859e-07
2.16558e-07
1.84351e-08
2.24577e-07
-2.27829e-07
-2.33251e-07
-7.69558e-09
2.39307e-07
-2.57734e-07
1.84276e-08
-2.12828e-07
-7.85739e-09
-2.59384e-07
1.12881e-07
1.46503e-07
-3.23431e-10
2.24045e-07
7.96665e-09
-2.11368e-07
2.45487e-07
-3.41194e-08
-2.31264e-07
2.00058e-07
3.12066e-08
-3.15279e-08
8.10186e-08
-4.94907e-08
-7.2756e-08
-1.83113e-07
-2.34117e-07
-2.02059e-09
2.23564e-07
6.95392e-08
1.883e-07
-3.92993e-09
-2.27295e-07
-1.18523e-09
-4.87157e-09
-2.48345e-07
2.09615e-07
3.87302e-08
-1.47304e-08
1.85078e-07
3.68662e-08
3.63244e-07
-1.5952e-07
-7.63291e-08
-1.82176e-07
2.27522e-07
2.96308e-09
-1.94334e-07
8.16832e-08
-8.87544e-08
-1.38377e-07
2.27132e-07
-7.81582e-08
-1.80987e-07
-1.26607e-07
3.074e-07
-2.35122e-07
7.8277e-09
-2.22144e-07
2.23051e-07
-9.0718e-10
-1.82287e-07
1.7419e-07
-2.74052e-09
-2.17758e-07
2.20498e-07
-2.39309e-07
4.18644e-09
1.99295e-07
-2.36928e-07
3.76322e-08
2.22639e-07
-2.2538e-07
1.97979e-07
-7.46314e-08
-1.23347e-07
-3.00001e-07
1.07824e-07
1.92176e-07
2.0324e-07
1.95749e-08
1.67457e-07
1.01894e-07
4.9086e-08
2.18012e-07
-5.93442e-08
-2.07754e-07
-2.4239e-07
2.40249e-07
2.14062e-09
-2.41745e-07
-6.45144e-10
-2.40602e-07
-1.14305e-09
9.40433e-10
6.26935e-08
-3.5025e-07
2.87556e-07
-2.59179e-07
3.08829e-07
2.04829e-07
-2.02597e-07
2.19259e-07
9.23193e-09
1.7784e-08
1.80195e-07
-2.20175e-07
-1.99259e-07
1.98513e-07
2.46501e-08
-2.23163e-07
-1.1477e-09
-4.7992e-08
3.49315e-07
-3.01323e-07
3.31302e-07
-2.38409e-07
-1.00724e-07
1.50128e-07
-6.42505e-08
-1.95134e-07
-1.72506e-07
-1.27495e-07
-2.19727e-07
-1.35242e-08
-2.21774e-07
2.21777e-07
-2.33538e-12
-3.49842e-08
2.07747e-07
-1.72763e-07
-2.38299e-07
2.39826e-07
-1.52682e-09
-2.3572e-07
-2.57936e-09
-3.02578e-07
1.93022e-08
2.83276e-07
-2.10943e-07
-1.36187e-08
2.24561e-07
2.37505e-07
2.32101e-09
-4.21158e-08
-2.58292e-07
9.54679e-08
1.62824e-07
1.4714e-09
-1.36959e-07
-1.21333e-07
-3.0965e-09
-2.46887e-09
-2.16382e-07
2.18851e-07
-2.22017e-07
1.10746e-08
2.0051e-07
2.70116e-08
2.30928e-07
-2.21404e-07
2.20339e-07
-2.22808e-07
2.19444e-07
6.39225e-09
1.07875e-07
2.23427e-07
2.24332e-07
-3.92542e-08
-1.79444e-08
-2.98251e-07
-1.31506e-08
1.81086e-07
-1.67935e-07
-2.34685e-07
-1.03512e-09
-2.34624e-07
-6.06297e-11
2.36463e-07
-2.34661e-07
-1.80217e-09
2.33974e-07
2.4892e-09
-2.19063e-07
5.34587e-08
-7.29069e-08
1.94483e-08
-2.6351e-07
1.54392e-07
1.09118e-07
1.18606e-07
-2.37699e-07
1.19093e-07
-2.07025e-07
-1.91526e-08
-2.21047e-07
2.19985e-07
1.06218e-09
-2.2944e-07
2.20992e-07
8.44743e-09
-1.82562e-08
2.34819e-07
-2.16563e-07
-2.2802e-07
6.00263e-09
-2.53121e-07
3.15815e-07
-2.33218e-08
-2.05606e-07
-2.37966e-07
2.1971e-07
-1.86562e-07
-1.69963e-08
2.03558e-07
-1.73325e-07
2.32546e-07
1.42798e-09
-1.58336e-07
-4.23446e-08
4.71e-08
-4.75537e-09
-2.07819e-09
8.52143e-09
-3.01356e-07
2.92835e-07
-1.66502e-07
-8.11429e-08
-2.35459e-07
2.30862e-07
4.59653e-09
-2.3182e-07
-3.63886e-09
-8.29929e-08
5.14649e-08
2.19067e-07
5.51013e-09
2.31797e-07
-3.69976e-08
2.31789e-07
-2.31688e-07
-1.0035e-10
-6.1078e-10
-2.14654e-07
2.15265e-07
2.42241e-07
-1.72702e-07
-2.87214e-09
2.39576e-07
1.36377e-07
-3.75953e-07
2.36921e-07
-2.36921e-07
3.74451e-08
2.1543e-07
-8.35679e-08
-1.48504e-07
-1.89264e-07
2.28112e-07
-3.88481e-08
-2.44557e-08
-2.04984e-07
2.19138e-07
-2.19749e-07
-2.08999e-07
3.06167e-09
2.05938e-07
4.05185e-08
-2.12714e-07
1.72196e-07
-2.20377e-07
2.17984e-07
2.39356e-09
1.41219e-07
1.01023e-07
-6.70739e-09
-3.56372e-08
-1.3188e-07
-1.3163e-07
-5.17324e-08
-2.34965e-07
2.35977e-08
-2.17758e-07
1.97077e-07
4.22296e-08
-1.82462e-07
-2.05464e-07
1.89024e-08
-2.0985e-07
1.21095e-07
2.38367e-07
-1.9366e-07
-4.47076e-08
4.03858e-08
1.90542e-07
-1.66149e-07
-7.92227e-08
-2.3231e-07
2.3231e-07
2.32985e-07
-2.24087e-07
-8.89851e-09
1.31715e-08
-2.20197e-07
-1.85692e-07
2.09755e-07
-2.40626e-08
-7.30794e-08
3.36222e-08
2.16888e-07
-2.17963e-07
1.07559e-09
2.28416e-07
2.44619e-09
2.30452e-07
2.5337e-09
3.47451e-07
-2.21909e-07
-6.11082e-09
-1.94458e-07
1.59473e-07
2.18688e-07
3.95087e-09
2.29767e-07
-2.28653e-07
-1.11361e-09
-2.05317e-09
-3.27223e-09
2.41854e-08
-1.96865e-07
1.7268e-07
-6.38672e-09
-3.01763e-07
7.22882e-08
1.60631e-08
-2.01755e-07
-2.1974e-07
2.16308e-07
3.43174e-09
2.18722e-07
-1.94266e-08
-1.01155e-07
-1.35628e-07
-3.07171e-07
2.27264e-08
-1.2345e-07
-3.64523e-08
7.5514e-10
2.25515e-07
-2.00865e-07
-2.16382e-07
-2.16692e-07
5.7544e-09
2.10937e-07
3.05533e-07
4.37816e-08
1.75633e-07
8.77206e-08
2.13166e-07
-9.456e-08
2.22174e-07
-1.25588e-08
5.12599e-07
-3.76222e-07
-3.5025e-07
-1.12716e-07
-1.18548e-07
-2.88464e-09
2.37515e-07
-2.22518e-07
-1.49966e-08
2.25258e-07
5.19381e-09
2.6171e-08
-2.15435e-07
-1.59455e-07
1.8364e-07
2.18298e-07
2.04076e-09
1.6847e-07
7.53787e-08
2.29018e-07
8.4969e-09
2.28829e-07
-2.25598e-07
-3.2307e-09
-1.03434e-07
-1.4334e-07
-1.02137e-08
2.10271e-07
3.8048e-09
-2.42243e-07
1.89582e-07
-1.49063e-07
-3.39536e-09
4.74204e-09
1.84888e-07
-2.01221e-07
1.63337e-08
3.4435e-08
1.93677e-07
3.09072e-07
-3.0055e-07
1.08385e-07
1.36013e-07
-2.18933e-07
2.16743e-07
2.18944e-09
-5.0213e-09
-1.27605e-07
7.01393e-08
5.74661e-08
-2.32997e-09
2.37238e-07
-2.37238e-07
2.68289e-07
-1.55841e-07
-1.12448e-07
-1.95131e-07
-3.35522e-08
1.6364e-07
7.83936e-08
2.27726e-07
1.29248e-09
-2.14654e-07
2.12931e-07
1.40822e-09
-2.1434e-07
1.74117e-07
2.42243e-07
-2.41111e-07
6.12378e-09
2.83392e-07
-2.52094e-07
2.18491e-07
-2.31168e-07
2.17918e-07
-4.98639e-09
1.96157e-07
-2.12962e-07
2.11995e-07
9.67355e-10
9.71011e-09
1.70638e-07
-1.80348e-07
-1.93093e-07
1.59596e-07
-1.44288e-08
2.01486e-07
2.76144e-08
-1.98006e-09
-1.87254e-07
-3.26453e-08
-2.81103e-07
1.77669e-07
7.87266e-10
-2.13615e-07
-2.27236e-07
-1.07296e-08
3.03525e-07
-1.63122e-07
2.12747e-09
-3.98189e-08
2.41007e-07
-2.01188e-07
-1.02705e-07
-2.49005e-08
2.1205e-07
-2.14214e-07
2.16371e-09
-2.18491e-07
2.17268e-07
9.42943e-08
1.342e-07
-2.28495e-07
2.25943e-07
-4.10549e-08
1.79403e-08
2.02208e-07
2.24069e-07
2.14177e-08
2.39557e-08
2.9503e-08
-2.38255e-07
5.28644e-09
-1.88556e-07
2.14727e-07
-1.09349e-07
1.32075e-07
2.0178e-08
-1.98004e-07
1.77826e-07
-1.68887e-09
3.1476e-09
-1.97557e-07
-2.25557e-07
2.21263e-07
4.29398e-09
-2.15554e-07
2.18941e-08
1.40845e-07
1.27443e-07
-1.20757e-07
2.47921e-07
-1.27164e-07
2.49763e-07
-2.33114e-07
-1.6649e-08
6.42621e-09
1.5317e-07
-2.14411e-07
-2.281e-09
2.17623e-07
2.95162e-10
1.06434e-07
-3.62947e-08
2.77167e-07
-2.49744e-07
1.95866e-07
3.12796e-08
1.23011e-08
-2.2108e-07
3.38258e-08
3.38095e-09
-1.91936e-07
2.46718e-07
-1.99237e-07
2.0078e-07
-1.21177e-08
-1.91074e-07
2.03192e-07
-2.16653e-07
2.25808e-07
-2.75758e-09
-3.2807e-07
2.67466e-08
-1.44127e-09
2.12376e-07
4.36688e-09
-1.99483e-07
-2.20371e-07
2.19522e-07
8.49191e-10
2.63057e-07
-1.52847e-07
-1.1021e-07
-1.83907e-07
-1.68161e-08
2.00723e-07
-3.40893e-10
-2.16469e-07
4.72788e-09
-2.3845e-08
2.3241e-07
-2.08565e-07
-2.13098e-07
2.14174e-07
-3.08965e-07
-4.5076e-08
-2.99016e-07
2.91404e-07
7.61222e-09
1.69023e-07
8.69993e-08
1.99265e-07
1.84072e-08
-2.17672e-07
2.12005e-07
-8.76582e-09
1.69325e-07
8.57508e-08
-1.51208e-07
4.8503e-08
-2.14983e-07
1.85871e-07
-2.11561e-07
-2.87902e-07
2.86876e-07
1.0259e-09
2.59267e-07
-2.08173e-07
2.12589e-07
-5.94029e-10
1.32943e-08
-1.98259e-07
1.84965e-07
-3.21869e-09
-2.84683e-07
2.5751e-07
-2.5751e-07
-1.17528e-07
2.20837e-07
-1.03309e-07
-2.12526e-07
2.12526e-07
2.177e-07
-1.91975e-07
-2.57249e-08
2.00334e-07
4.85508e-08
2.26301e-07
-1.85915e-07
2.24358e-07
-2.5813e-09
-1.74763e-07
-2.84674e-08
2.0323e-07
-2.8445e-07
2.85471e-07
-1.02133e-09
2.62344e-07
-1.57705e-07
-1.04639e-07
3.82965e-08
1.88004e-07
-2.87429e-07
2.85956e-07
1.47315e-09
-5.39239e-11
-2.18318e-09
2.836e-07
-2.81417e-07
-2.8641e-07
2.8641e-07
-3.46214e-09
2.15512e-07
3.07716e-07
-2.86597e-07
-2.11189e-08
-2.87635e-07
2.85452e-07
2.8731e-07
-2.8587e-07
-1.43962e-09
-2.09437e-07
-4.77641e-09
2.45178e-07
-3.3666e-09
2.85471e-07
-2.82104e-07
2.85551e-07
-2.86097e-07
5.46184e-10
-2.16325e-07
2.84032e-07
-4.31429e-10
-2.20152e-07
2.18256e-07
1.8958e-09
-2.83977e-07
2.85052e-07
-1.07404e-09
2.17802e-07
-2.12047e-07
-2.86868e-07
2.83501e-07
2.20356e-07
-7.04192e-08
1.0398e-07
1.37027e-07
-1.58527e-07
-1.22576e-07
-2.85871e-07
2.85871e-07
-2.87198e-07
-4.3714e-10
2.66114e-07
-4.94263e-08
-2.16688e-07
-1.86321e-07
1.2602e-07
7.32034e-09
2.84495e-07
-2.85406e-07
9.11144e-10
2.09506e-07
-2.09524e-07
1.78712e-11
2.93378e-07
-2.85697e-07
-7.68137e-09
2.82936e-07
1.55818e-09
2.82442e-07
3.02848e-09
-6.23669e-10
-2.11903e-07
-2.60156e-07
1.43829e-07
1.16327e-07
-2.1161e-07
2.13018e-07
2.83883e-07
-9.46796e-10
2.97678e-08
1.92406e-07
1.52274e-07
-5.79796e-08
-2.86476e-07
-3.92044e-10
2.33665e-07
1.38278e-07
-2.36368e-07
-3.64753e-08
-2.91594e-07
2.13863e-07
-2.15304e-07
1.44082e-09
-9.97662e-09
-2.89039e-07
2.22561e-07
-2.57593e-09
2.46775e-07
-1.6862e-07
-7.81549e-08
-2.13979e-07
2.84335e-07
-2.84335e-07
2.03862e-07
3.14669e-09
-2.07009e-07
2.1952e-07
-2.84949e-07
2.84562e-07
3.86876e-10
2.82847e-07
-2.8566e-07
2.81306e-09
1.78193e-07
-2.37537e-07
-8.09397e-10
-2.82925e-07
2.83735e-07
2.82271e-07
-2.8308e-07
-9.26507e-09
3.00669e-07
-2.25292e-07
2.44594e-07
-2.56091e-07
1.77933e-07
-4.51402e-09
2.9139e-07
2.44121e-08
1.25716e-07
3.20309e-09
2.62911e-07
-6.3539e-10
2.27098e-07
-2.26463e-07
-2.00787e-09
-2.85617e-07
-1.81245e-09
2.35031e-07
-2.37159e-08
-2.11315e-07
-2.83717e-07
2.83717e-07
1.65494e-07
-1.42443e-07
-2.86085e-07
2.85308e-07
7.77047e-10
2.18841e-07
-2.18841e-07
2.12666e-07
-3.15928e-09
2.8411e-07
-2.84573e-07
4.62844e-10
-2.73661e-07
7.44016e-08
-1.01774e-10
-2.11292e-07
2.11394e-07
2.28918e-07
-1.95827e-09
2.84647e-07
2.66305e-09
1.72665e-07
2.94451e-08
-2.0211e-07
2.85578e-07
-1.54673e-09
2.22654e-07
-2.22654e-07
2.83774e-07
-2.82744e-07
-1.02999e-09
-2.17551e-07
2.15772e-07
1.77871e-09
2.859e-07
-2.85044e-07
-8.56689e-10
-2.84215e-07
2.84215e-07
4.25392e-08
1.99337e-07
6.77935e-09
-2.06117e-07
-2.86109e-07
2.85337e-07
7.7263e-10
-1.13011e-09
-2.14642e-07
2.13461e-07
4.02657e-10
2.65887e-07
-4.97248e-08
-2.16162e-07
1.83869e-07
2.83045e-07
-2.83839e-07
7.93583e-10
2.19318e-07
2.33552e-07
3.32489e-09
2.00537e-07
2.90276e-07
-5.62872e-09
2.82062e-07
9.83523e-10
2.07992e-07
-2.07992e-07
-1.09349e-07
2.87057e-07
-2.8478e-07
-8.79854e-10
2.84707e-07
-2.83661e-07
-1.04662e-09
5.72486e-09
-2.90181e-07
2.84456e-07
3.00464e-08
-2.87556e-07
-2.85582e-07
2.8507e-07
5.12026e-10
2.06137e-07
-2.06221e-07
8.3719e-11
2.177e-07
-1.91919e-07
1.91919e-07
2.82657e-07
-5.95342e-10
-2.12101e-07
-1.98259e-07
1.99265e-07
2.20411e-07
-2.42768e-09
-6.72442e-10
2.25269e-08
-2.80685e-07
2.84631e-07
-2.8477e-07
1.39332e-10
6.37744e-09
1.9976e-07
6.84732e-09
2.28184e-07
2.14072e-07
-1.40611e-09
-2.85019e-07
2.84644e-07
3.75238e-10
2.82468e-07
-2.8335e-07
8.82129e-10
-2.84652e-07
-1.43264e-09
2.83946e-07
-2.8315e-07
-7.95217e-10
2.14695e-07
4.14564e-09
2.84038e-07
1.26954e-09
-3.87943e-10
2.8347e-07
1.17357e-09
-6.31428e-11
-2.1016e-07
-2.87792e-07
3.10822e-09
-2.13086e-07
2.13086e-07
2.98294e-09
2.62904e-07
-2.16544e-07
4.1781e-08
1.57141e-09
2.8398e-07
1.14358e-08
-2.0551e-07
1.94074e-07
2.11014e-09
2.843e-07
2.71241e-07
-2.95862e-07
2.14916e-07
7.73846e-09
2.82271e-07
-2.19229e-09
2.0153e-07
-2.06927e-07
7.06385e-10
2.03861e-07
-3.11968e-08
-2.82976e-07
2.82976e-07
-2.84468e-07
-1.64124e-09
1.91975e-07
-1.99113e-07
7.13721e-09
-2.843e-07
2.09195e-07
-2.09297e-07
2.83887e-07
1.44969e-09
-2.83987e-07
-2.52709e-07
1.7638e-07
-2.85294e-07
2.84802e-07
4.92249e-10
1.93487e-07
1.85189e-08
2.11292e-07
1.23418e-09
-2.82035e-07
2.84029e-07
-1.99428e-09
-2.15133e-07
2.13363e-07
1.7704e-09
-2.82924e-07
8.88925e-10
2.13768e-07
-3.07281e-10
1.1419e-08
-2.2027e-07
2.08851e-07
2.82897e-07
-2.84195e-07
1.29803e-09
2.30363e-07
-2.41093e-07
2.82843e-07
-2.82827e-07
-1.55448e-11
-1.79985e-07
1.79984e-07
-2.22813e-07
2.22813e-07
-2.82523e-07
-4.01099e-10
-1.32075e-07
1.56487e-07
-2.83356e-07
2.82934e-07
4.21827e-10
2.30911e-09
2.83562e-07
1.76665e-07
-1.56487e-07
-1.76665e-07
1.86375e-07
1.86776e-07
-2.15244e-07
2.58398e-07
-1.52669e-07
-1.0573e-07
-2.84342e-07
-1.24017e-09
-4.11279e-08
-1.86375e-07
2.27503e-07
2.83962e-07
1.10822e-09
-2.15516e-07
1.98212e-07
2.84849e-07
-2.84261e-07
-5.8856e-10
-2.83097e-07
-2.136e-07
2.15115e-07
-7.12232e-09
-7.85026e-10
2.84668e-07
2.83402e-07
-2.11394e-07
-2.90211e-07
-1.70539e-07
2.17672e-07
-4.71331e-08
-2.81867e-07
-1.05848e-09
2.83095e-07
3.74606e-10
1.65168e-07
-1.68973e-07
3.80405e-09
3.20326e-10
1.99113e-07
-2.07103e-07
7.99062e-09
1.30962e-07
1.32094e-07
-2.84217e-07
-1.0768e-09
-2.15807e-07
2.81846e-07
-2.81601e-07
-2.44214e-10
2.83855e-07
9.47448e-10
-2.84718e-07
2.84399e-07
3.19053e-10
2.18166e-07
2.14695e-07
-2.82588e-07
2.81939e-07
6.48917e-10
2.84586e-07
-2.8445e-07
-1.3624e-10
-2.1215e-07
2.14916e-07
2.82448e-07
-2.82448e-07
1.17324e-09
2.84783e-07
-1.78309e-07
-3.82344e-08
2.83014e-07
-1.17587e-10
-3.63242e-08
1.93189e-07
-1.56865e-07
2.82306e-07
-2.82064e-07
-2.42468e-10
8.82887e-10
2.83452e-07
2.81782e-07
-2.8205e-07
2.68088e-10
-2.8512e-07
-2.84066e-07
-1.71072e-07
2.64866e-10
2.84297e-07
-3.92031e-10
-2.83463e-07
2.83855e-07
-2.82464e-07
2.81833e-07
6.30993e-10
-2.84212e-07
-5.05941e-10
-2.15278e-07
-2.08153e-07
1.22512e-09
2.839e-07
4.98977e-10
-2.82205e-07
2.82083e-07
1.21954e-10
-2.82395e-07
1.10053e-09
2.81294e-07
2.84142e-07
7.07354e-10
-2.83242e-07
-1.01854e-09
-2.07047e-07
-9.449e-10
2.84005e-07
-2.84173e-07
1.6801e-10
2.82463e-07
-2.82855e-07
-2.82899e-07
2.82504e-07
3.94512e-10
2.82187e-07
-2.81958e-07
-2.29197e-10
2.12935e-07
1.51067e-10
2.8409e-07
4.96005e-10
-2.8368e-07
-7.70524e-10
-2.84697e-07
2.15115e-07
-2.82345e-07
2.81769e-07
5.75976e-10
1.87463e-07
-1.99581e-07
-2.81546e-07
2.82618e-07
-1.07181e-09
2.82443e-07
-2.82874e-07
4.30714e-10
-7.42193e-10
-2.83925e-07
-2.87903e-10
-7.65333e-10
-2.50497e-07
1.77741e-07
-5.06252e-10
2.82463e-07
-4.87054e-10
-3.16903e-10
-2.84175e-07
2.50658e-10
1.09214e-07
2.38673e-07
-3.47887e-07
-5.90372e-08
2.83996e-07
8.89767e-12
-2.83452e-07
5.52905e-10
2.83164e-07
-2.8362e-07
-5.53281e-10
-2.13722e-07
-2.84466e-07
2.90697e-10
1.05026e-09
2.8306e-07
-3.84268e-11
1.38026e-09
-2.7968e-07
2.783e-07
2.844e-07
-2.84251e-07
-1.49224e-10
-2.17435e-07
3.91258e-08
2.83851e-07
-2.83354e-07
-4.96818e-10
-2.8402e-07
-2.10647e-07
-1.12582e-08
2.82131e-07
-2.81904e-07
-2.26904e-10
1.51059e-09
-2.79946e-07
2.78435e-07
-2.84325e-07
2.83776e-07
5.4935e-10
-2.15305e-07
2.134e-07
1.90552e-09
2.36537e-10
-2.84314e-07
-1.52109e-10
-2.167e-07
4.49444e-08
1.71756e-07
-2.83951e-07
-3.74432e-10
2.84298e-07
1.02291e-10
-2.83822e-07
-4.2843e-10
-1.19262e-09
-2.84328e-07
1.41056e-11
-2.04566e-07
-2.3207e-08
2.27773e-07
1.63107e-07
1.22851e-09
-2.83164e-07
2.13521e-07
-1.58579e-10
-2.82122e-07
2.82122e-07
-5.5227e-10
2.84163e-07
1.35165e-10
-2.27707e-10
4.62333e-10
4.70408e-10
2.84269e-07
-1.06571e-10
1.7379e-10
2.84201e-07
-2.84197e-07
-3.89485e-12
2.052e-07
-2.052e-07
-2.83622e-07
2.82988e-07
6.33453e-10
2.8261e-07
-2.82324e-07
-2.86065e-10
-4.21017e-10
2.84092e-07
1.77546e-10
2.84105e-07
9.59862e-11
-1.05249e-10
2.84088e-07
2.83864e-07
-2.84017e-07
1.52724e-10
-2.8659e-07
-2.82946e-07
-6.75992e-10
2.19063e-07
-2.75525e-09
2.836e-07
2.64439e-10
2.351e-09
2.8383e-07
-2.83499e-07
-3.30902e-10
-2.02934e-07
2.02934e-07
1.65383e-09
2.82561e-07
-2.82069e-07
2.82531e-07
-4.62778e-10
2.83764e-07
6.65606e-11
1.25187e-09
2.1282e-07
2.83433e-07
-2.83308e-07
-1.24811e-10
-2.8116e-07
-9.0846e-10
2.82677e-07
-2.82905e-07
2.2765e-10
2.83237e-07
1.96399e-10
2.83751e-07
3.53641e-10
-2.68886e-09
-2.80774e-07
-4.33552e-10
-2.50128e-08
-1.90422e-07
2.82181e-07
-2.82458e-07
2.77872e-10
8.5469e-09
1.96653e-07
2.83403e-07
-2.83117e-07
-2.8635e-10
-2.65724e-10
-5.1195e-09
-2.35627e-07
2.40747e-07
-2.05327e-07
2.07683e-07
-2.3563e-09
-2.80835e-07
2.8093e-07
-9.57591e-11
2.83058e-07
3.45393e-10
-2.82185e-07
-1.76045e-07
2.85258e-07
2.83189e-07
-2.8276e-07
-4.28444e-10
-2.83433e-07
2.83439e-07
-5.34819e-12
2.82666e-07
-2.82414e-07
-2.52683e-10
-2.76309e-08
-2.42587e-07
2.70218e-07
2.82879e-07
3.09938e-10
-2.81074e-07
2.39715e-10
2.83227e-07
-2.82867e-07
-3.59985e-10
2.12935e-07
-2.17416e-07
2.17416e-07
2.83126e-07
-2.82561e-07
-5.64102e-10
-5.68105e-10
2.83225e-07
-4.44899e-10
-2.13265e-07
2.82696e-07
4.29531e-10
-2.834e-07
-5.50536e-10
-2.80617e-07
2.80772e-07
-1.54847e-10
2.83436e-07
1.63405e-10
4.95396e-09
2.80517e-07
-6.28429e-11
2.83219e-07
7.26893e-10
2.12577e-07
9.43982e-10
3.86142e-11
-2.80919e-07
3.01297e-10
2.1763e-08
8.24028e-10
9.0746e-09
2.82413e-07
-2.82674e-07
2.61392e-10
-2.80317e-07
2.80653e-07
-3.36287e-10
5.31517e-09
-2.13091e-07
2.07775e-07
3.80565e-08
-2.21397e-07
1.8334e-07
7.97549e-08
2.00817e-07
-2.00817e-07
2.82185e-07
-2.82185e-07
-2.30413e-07
1.31675e-10
-2.82719e-07
2.16832e-07
2.83104e-07
6.59239e-10
-5.30661e-08
-9.91596e-08
1.52226e-07
-2.80747e-07
4.30615e-10
-2.80839e-07
-9.34241e-09
1.20004e-07
-1.97819e-07
7.78149e-08
-2.03979e-10
1.96037e-09
2.80657e-07
3.79863e-10
2.13388e-07
-2.83544e-07
6.04152e-10
2.82372e-07
1.80179e-07
-2.19951e-07
3.97717e-08
1.83439e-07
-6.34348e-08
-3.58405e-10
-2.82106e-07
2.83613e-07
-2.81653e-07
-2.82752e-07
-2.79945e-07
2.79669e-07
2.7575e-10
7.55781e-11
2.82858e-07
2.81884e-07
3.01348e-10
2.57607e-07
-1.71089e-07
-8.65172e-08
-6.00235e-10
2.15516e-07
2.8277e-07
4.66457e-10
2.57742e-07
-2.85373e-07
1.96754e-09
2.80643e-07
-3.37173e-10
-2.82008e-07
-2.80296e-07
3.51253e-10
-2.05731e-07
4.03931e-10
2.16385e-07
-1.73462e-07
-4.29229e-08
2.81375e-07
-2.81391e-07
1.59427e-11
-3.46525e-10
8.10186e-08
-1.14071e-07
-1.06844e-07
2.20916e-07
2.81928e-07
-2.82353e-07
4.25277e-10
2.22625e-07
-2.19479e-07
-5.82795e-10
2.15278e-07
-1.84655e-07
1.31589e-07
2.8163e-07
-2.81907e-07
2.76753e-10
2.83281e-07
-2.81314e-07
-2.12544e-07
7.34442e-09
-2.13154e-07
2.1263e-07
5.2381e-10
2.07103e-07
-2.12223e-07
4.6379e-09
2.80414e-07
-2.15436e-07
2.08185e-07
-7.67537e-09
2.82814e-07
-2.8247e-07
-3.43648e-10
2.19955e-07
-2.11087e-07
-8.86733e-09
2.81884e-07
-1.72969e-10
-2.82032e-07
-2.08677e-07
5.24593e-10
2.6282e-08
1.60036e-07
-1.86318e-07
-2.79585e-07
2.7927e-07
3.14887e-10
2.81419e-07
1.02392e-09
-1.78115e-07
-3.71281e-08
2.1112e-09
2.80555e-07
2.82309e-07
-2.82995e-07
6.86107e-10
2.81977e-07
-5.15703e-10
-2.81086e-07
-2.18847e-07
-3.72563e-08
2.82446e-07
6.11727e-10
3.00759e-07
-6.20862e-08
-1.79294e-09
2.82217e-07
-2.80424e-07
2.82039e-07
2.69962e-10
-2.8001e-07
4.24683e-10
-2.80712e-07
-2.11574e-09
-5.20939e-10
2.78404e-07
-2.77883e-07
3.74719e-10
2.82073e-07
2.8332e-07
-2.81209e-07
-2.82372e-07
-6.92413e-10
2.15807e-07
-3.14104e-10
2.13694e-07
-1.07253e-08
-2.02968e-07
3.00306e-09
2.10691e-07
-2.78822e-07
2.78301e-07
-2.82312e-07
-6.33858e-10
1.79252e-07
3.71331e-08
-9.87622e-10
2.18574e-07
-2.17586e-07
-1.80401e-07
-1.51199e-07
1.77481e-07
-2.35319e-07
2.98752e-08
2.05443e-07
2.81948e-07
2.22982e-10
-2.82287e-07
2.88948e-09
2.80724e-07
2.81539e-07
-2.81586e-07
4.69039e-11
2.82155e-07
-2.81305e-07
-8.49455e-10
-2.82524e-07
2.19621e-10
-4.51547e-10
-2.13356e-07
2.13808e-07
4.90087e-11
2.82455e-07
-1.9584e-07
5.74631e-08
-2.82179e-07
2.82011e-07
1.67679e-10
-2.79193e-07
2.78844e-07
3.49062e-10
2.5581e-09
2.29689e-07
-2.2291e-07
1.69497e-07
-4.32903e-09
-1.53287e-09
2.8238e-07
-2.80847e-07
-2.51423e-07
1.37351e-07
2.8185e-07
2.50848e-10
-2.82209e-07
2.82119e-07
7.59961e-10
-2.63711e-07
2.29403e-09
2.61417e-07
4.65918e-10
-2.79659e-07
2.81596e-07
-2.81299e-07
-2.96727e-10
-8.65722e-09
2.83406e-07
-2.74749e-07
-4.42874e-10
-5.81721e-08
2.65276e-07
-2.07103e-07
-2.12544e-07
-2.31901e-07
2.8177e-07
-1.40175e-10
2.55241e-09
2.80729e-07
2.75225e-07
2.845e-07
-2.84712e-07
2.11618e-10
3.30508e-10
-2.14361e-07
2.1403e-07
-2.81947e-07
2.81752e-07
1.95108e-10
5.74235e-09
-2.1279e-07
2.07047e-07
2.82311e-07
-2.82217e-07
-9.44371e-11
-2.18783e-07
2.17795e-07
2.81489e-07
-2.81265e-07
-2.23269e-10
7.98293e-10
2.81356e-07
-3.66885e-09
2.82971e-07
-2.82084e-07
2.23199e-09
-2.07631e-07
2.82109e-07
-2.82056e-07
-5.22567e-11
2.81958e-07
1.64012e-10
-2.82068e-07
2.80507e-07
5.80214e-10
-2.81088e-07
6.93245e-11
2.82142e-07
-2.81344e-07
-7.73533e-10
-2.13917e-07
2.1469e-07
1.51945e-07
-2.23283e-07
7.1338e-08
-4.67712e-08
-2.1694e-07
-2.07609e-07
-4.5874e-08
-1.81894e-07
-2.81805e-07
1.67977e-09
2.80125e-07
-2.1517e-07
2.13917e-07
1.253e-09
-6.52485e-08
-1.72289e-07
-2.81619e-07
2.52034e-07
-2.81047e-07
2.81555e-07
-5.07391e-10
-2.34359e-07
2.29777e-08
2.11381e-07
2.25168e-07
-1.72713e-07
-5.24552e-08
-2.82068e-07
5.8464e-10
2.81483e-07
2.14161e-07
-2.11352e-07
6.09487e-10
2.80987e-07
-2.82073e-07
2.96047e-10
2.81826e-07
2.81754e-07
9.41626e-10
-5.0541e-11
-2.82e-07
-9.61633e-10
-2.81217e-07
-2.81337e-07
2.14077e-07
-2.11783e-07
-1.24038e-09
6.03453e-08
1.8643e-07
-1.92005e-07
1.92005e-07
2.50844e-09
2.80812e-07
-3.19301e-07
-2.60729e-07
2.6106e-07
2.82162e-07
2.13709e-07
-2.12007e-07
-2.8175e-07
2.80789e-07
-2.38031e-07
2.43773e-07
2.81542e-07
-2.81293e-07
-2.49018e-10
3.59172e-10
2.81821e-07
-2.85129e-07
2.14744e-07
-2.15517e-07
-2.81651e-07
4.90883e-10
1.06487e-07
2.82362e-07
-2.8202e-07
-3.4178e-10
-2.82162e-07
2.81561e-07
-2.81327e-07
-2.34123e-10
-2.81526e-07
-2.79141e-10
2.80884e-07
-2.80015e-07
-2.15144e-07
2.59696e-07
2.81315e-07
-2.81229e-07
-8.62952e-11
-5.02043e-10
2.81009e-07
-2.1517e-07
1.86568e-07
-2.01918e-07
1.53503e-08
-3.47459e-07
3.47459e-07
2.82033e-07
2.82084e-07
-7.20598e-10
4.91587e-10
-2.81937e-07
2.83014e-07
-1.07735e-09
2.81473e-07
-2.81234e-07
-2.3901e-10
-2.33665e-07
2.22407e-07
9.02686e-10
2.81315e-07
-2.82051e-07
7.78075e-10
2.81273e-07
-2.81194e-07
2.81794e-07
-2.81417e-07
-2.15914e-07
-2.81819e-07
9.69513e-10
2.80849e-07
-2.16167e-07
-6.31699e-10
2.11269e-07
-2.12768e-07
1.4986e-09
2.81101e-07
-2.81336e-07
2.35329e-10
5.53821e-09
-2.81819e-07
2.8134e-07
4.79238e-10
2.81811e-07
-2.06699e-07
-2.05381e-07
-3.29594e-09
2.81996e-07
-2.81996e-07
-1.49101e-09
2.14426e-07
-2.81826e-07
2.81419e-07
-2.8118e-07
-2.39278e-10
2.81933e-07
-1.59505e-09
-2.81555e-07
-2.09721e-07
-2.59061e-08
-2.15782e-07
1.68207e-07
-1.88073e-07
1.98664e-08
-4.19131e-08
-1.82148e-07
2.24062e-07
2.8088e-07
-2.80122e-07
1.83255e-07
-2.13091e-07
-6.3255e-10
-2.81435e-07
2.81577e-07
-2.81342e-07
-2.34539e-10
2.16421e-07
-2.17606e-07
-5.95268e-08
-3.92927e-08
9.88196e-08
-2.24389e-07
2.25917e-07
2.17429e-07
-2.14426e-07
-8.66156e-10
-2.10777e-07
2.11643e-07
-1.17742e-09
-2.09158e-07
2.10335e-07
7.76047e-10
-2.19889e-07
2.19113e-07
2.0611e-09
-2.20534e-07
2.18473e-07
1.14791e-09
-2.15813e-07
2.14666e-07
-3.4144e-10
-2.11417e-07
2.11758e-07
-1.5158e-10
-2.11333e-07
2.11485e-07
1.26849e-07
-8.54778e-08
-4.13709e-08
1.87281e-07
1.4306e-09
2.80949e-07
2.05999e-07
-2.07486e-07
1.48702e-09
6.6269e-10
-2.8146e-07
2.80797e-07
2.8221e-07
-2.8221e-07
2.78473e-07
4.51385e-11
-2.78518e-07
-9.88918e-10
-2.80762e-07
2.81398e-07
-2.81149e-07
-2.48946e-10
-1.74919e-07
-2.29596e-07
-4.7633e-09
1.84866e-07
3.50883e-08
2.8199e-07
-2.81567e-07
-4.22474e-10
-2.14657e-07
2.23768e-07
9.55127e-10
2.81187e-07
-1.5478e-07
-9.66431e-08
2.37231e-09
2.01702e-07
-2.04074e-07
-1.4434e-07
-2.46325e-08
-4.83873e-08
-2.94474e-08
7.78347e-08
2.12225e-07
2.12248e-07
2.21504e-07
2.21581e-07
2.20094e-07
2.16989e-07
-1.00766e-09
-2.12659e-07
2.13667e-07
2.12886e-07
-3.08759e-10
-8.29597e-08
2.81493e-07
-2.8083e-07
-7.03787e-09
2.26748e-07
-2.82244e-07
-1.92555e-07
2.39047e-07
2.78225e-07
6.32411e-11
-2.78288e-07
2.82576e-07
-5.80207e-10
-2.8197e-07
1.0437e-09
2.80927e-07
-2.12341e-07
-2.13356e-07
2.13461e-07
-2.14469e-07
-1.94018e-07
2.34519e-07
-4.05012e-08
-5.13968e-10
-2.81305e-07
1.46619e-07
-1.82943e-07
4.63731e-10
-2.81763e-07
-2.81422e-07
-7.48512e-08
-1.09804e-07
-2.80922e-07
-5.37771e-10
2.15965e-07
6.73219e-08
1.6514e-07
2.81119e-07
-2.809e-07
-2.1847e-10
2.14035e-07
-1.41372e-07
-7.26629e-08
-1.02087e-07
5.36998e-08
-1.1848e-07
2.55831e-07
-1.02613e-07
2.13092e-07
-1.10479e-07
1.33749e-10
2.81794e-07
-2.79845e-07
2.81316e-07
-2.8148e-07
1.63907e-10
-1.59332e-07
6.77554e-08
9.15763e-08
-8.95387e-10
-2.12587e-07
2.13483e-07
2.94524e-07
-1.2982e-07
-1.64704e-07
1.72942e-10
2.783e-07
-6.14089e-08
-9.79228e-08
-2.0563e-07
2.08003e-07
1.757e-07
1.15813e-08
-2.04482e-07
-3.97592e-10
-2.12734e-07
2.13132e-07
2.19311e-07
-2.12934e-07
-1.30337e-07
-4.99063e-08
1.80243e-07
-2.809e-07
2.80988e-07
-8.83304e-11
-2.07131e-07
2.09363e-07
2.81172e-07
-2.81362e-07
-1.87777e-07
-4.22716e-09
-2.83307e-07
2.82261e-07
-1.46887e-07
2.09524e-10
2.81345e-07
2.45234e-07
-1.35522e-07
-1.09712e-07
2.07272e-07
-3.90655e-08
2.3244e-07
-3.07377e-08
2.1317e-07
-2.14066e-07
2.80832e-07
-2.8082e-07
-1.21547e-11
2.13203e-07
-2.136e-07
2.58683e-10
-2.80665e-07
2.80406e-07
-1.18254e-07
-2.86326e-08
1.06249e-09
-2.16207e-07
-2.81475e-07
4.0103e-10
1.87777e-07
-1.98958e-07
1.11803e-08
-3.02158e-08