/*--------------------------------*- C++ -*----------------------------------*\
  =========                 |
  \\      /  F ield         | OpenFOAM: The Open Source CFD Toolbox
   \\    /   O peration     | Website:  https://openfoam.org
    \\  /    A nd           | Version:  12
     \\/     M anipulation  |
\*---------------------------------------------------------------------------*/
FoamFile
{
    format      ascii;
    class       volVectorField;
    location    "0.12";
    object      U;
}
// * * * * * * * * * * * * * * * * * * * * * * * * * * * * * * * * * * * * * //

dimensions      [0 1 -1 0 0 0 0];

internalField   nonuniform List<vector> 
4428
(
(0.000912984 0.000346902 1.01429e-16)
(-0.000924073 0.000382342 -9.03828e-17)
(-0.000839013 0.000384335 0)
(-0.000870114 0.000368765 0)
(0.000835507 0.000696756 8.16393e-17)
(0.000876093 0.000719163 3.2542e-21)
(-0.000832861 0.000485445 0)
(-0.00093274 0.000331882 1.4641e-16)
(0.000902459 0.00037289 -2.49065e-16)
(0.000933296 0.000267702 9.95377e-17)
(-0.00085488 0.000295334 -1.7333e-16)
(0.000852602 0.000368976 -1.76862e-16)
(-0.000963035 0.000198378 -2.03659e-16)
(-0.000294901 0.00107098 -9.58156e-17)
(0.000899287 0.000348769 0)
(0.00082442 0.000300331 0)
(0.000935464 0.000337865 0)
(-0.000855167 0.000294837 0)
(-0.000968066 0.000197098 0)
(0.000910321 0.000347219 0)
(0.000322122 0.000265047 -4.48035e-16)
(-0.000920778 0.000352406 -1.77701e-16)
(-0.000867515 0.000372383 0)
(-0.000952701 0.000319824 0)
(-0.000916387 0.00035008 2.26617e-17)
(-0.000868058 0.000317761 0)
(-0.000879842 0.00047208 1.03356e-16)
(0.000887806 0.000279892 2.07803e-16)
(0.000831583 0.000411065 0)
(-0.000977403 0.000217333 0)
(0.000908294 0.000212322 0)
(-0.000931022 0.000349772 -1.84204e-16)
(0.000920269 0.00029301 -9.00193e-17)
(-0.000950671 0.000465299 -2.77422e-16)
(-1.45202e-05 0.00124645 4.69772e-17)
(-0.000927557 0.000363294 1.99862e-16)
(-0.000913407 0.000464589 -4.4166e-21)
(0.000844699 0.00113847 1.27043e-17)
(-0.000126839 0.00108142 -2.62233e-17)
(-0.000871779 0.000384332 0)
(0.000922211 0.000331822 0)
(0.000825995 0.000260234 0)
(0.000871121 0.000295413 9.24317e-17)
(-0.000951839 0.000302098 1.66057e-16)
(0.00091004 0.000280742 0)
(0.000741312 0.000279676 0)
(0.00086758 0.000836367 -9.97836e-17)
(-0.000866787 0.000425826 2.03143e-16)
(-0.000883926 0.000377526 2.2446e-16)
(-0.000910512 0.000403257 0)
(0.000913042 0.00038632 0)
(0.00080888 0.000398315 1.88122e-16)
(0.000936393 0.000269543 -9.13183e-17)
(0.000820484 0.000410725 0)
(0.000842825 0.000361319 -1.39784e-17)
(0.000555886 0.000260327 0)
(0.000818987 0.000393396 -9.29927e-17)
(-0.000884084 0.000283446 0)
(0.000760475 0.000817084 1.8296e-16)
(0.000894847 0.000302652 -1.8201e-16)
(0.000936625 0.000359904 1.67096e-16)
(-0.00093856 0.000296998 0)
(0.000813398 0.000321343 2.79952e-16)
(-0.000929216 0.000348375 9.2698e-17)
(-0.000925497 0.000364023 0)
(0.00085285 0.000374432 0)
(-0.000947545 0.000306749 1.73157e-16)
(-0.000876748 0.000375627 -1.8582e-16)
(0.00088306 0.000312825 -1.82185e-16)
(-0.000904572 0.000393338 -3.61908e-16)
(-0.000951329 0.000293565 -9.1613e-17)
(0.000891018 0.00040763 2.12653e-16)
(0.000972603 0.00043045 5.80504e-17)
(-0.000859604 0.000360142 4.46953e-17)
(0.000908278 0.000319371 1.96649e-16)
(-1.61699e-05 0.00122775 -1.83295e-16)
(0.000937341 0.00043151 0)
(0.000964614 0.000382801 0)
(-0.000843262 0.000489807 -1.18144e-16)
(0.000649438 0.000303448 -4.3083e-21)
(0.000822249 0.000423582 -1.97538e-16)
(-0.000942389 0.000296127 0)
(0.000870003 0.000419707 -1.81063e-16)
(0.000883414 0.000371932 -1.72066e-16)
(0.000934434 0.000335759 3.18305e-16)
(-0.00101541 0.000312007 -2.54689e-16)
(-0.000122277 0.00139112 1.15143e-16)
(-0.000941834 0.000345093 0)
(-0.00092675 0.000352666 -9.60339e-17)
(0.000846499 0.000371816 2.04741e-17)
(0.000909881 0.000270544 8.36648e-17)
(0.000932469 0.000333814 -1.59368e-16)
(-0.000940315 0.000373783 0)
(-0.000937236 0.00034974 0)
(-0.000926063 0.000364675 9.81692e-17)
(-0.000897595 0.000379222 1.67119e-16)
(0.000925753 0.000366257 1.13531e-16)
(-0.000949717 0.000361007 -1.19903e-16)
(-0.000952541 0.000290615 9.28705e-17)
(0.000859903 0.000471273 0)
(0.00086034 0.000394864 -2.25141e-17)
(0.000889286 0.000349855 0)
(0.000912216 0.000320369 0)
(0.000823741 0.000310529 -1.87986e-16)
(0.000812106 0.000385232 -1.03702e-16)
(0.000837488 0.000404151 2.49126e-21)
(0.000893812 0.000367982 1.90326e-16)
(-0.00091583 0.000442135 -1.22455e-16)
(0.000930764 0.000364247 -1.20822e-16)
(0.000866775 0.000434989 0)
(0.000891527 0.00029337 1.64696e-16)
(0.000895311 0.0003434 -1.94804e-16)
(-0.000860416 0.000355166 2.63187e-21)
(0.000848841 0.000323128 1.65964e-16)
(-0.000519745 0.00032635 1.15542e-16)
(-0.000951031 0.000286319 1.80233e-16)
(-0.000204729 0.00119713 0)
(0.000370536 0.000289747 5.24746e-17)
(-0.000961079 0.000314886 8.87651e-17)
(0.00096216 0.000377473 -1.1286e-16)
(0.000961239 0.000373315 2.11531e-16)
(-0.000844055 0.000493676 2.41277e-16)
(0.000619221 0.00101334 -1.96896e-16)
(0.000913098 0.0002966 -3.03619e-16)
(5.2133e-06 0.00124689 1.78759e-16)
(-0.00093022 0.000348614 0)
(-0.000944005 0.000313361 -2.72258e-16)
(0.000857915 0.000362859 9.95089e-17)
(-0.000925934 0.000378377 -3.041e-16)
(-0.000928534 0.000362147 9.66768e-17)
(-0.000950801 0.000296276 -1.87133e-16)
(-0.000909642 0.00037594 0)
(0.000920831 0.00036866 2.24126e-16)
(0.000878311 0.000332401 0)
(0.00089157 0.000347294 0)
(0.000953101 0.000411487 6.53805e-21)
(0.000948651 0.000396945 -2.4367e-16)
(-0.000949156 0.00029015 -1.82388e-16)
(-0.000930621 0.000357534 -1.83551e-16)
(-0.000921094 0.00037337 1.43949e-16)
(-0.000919845 0.000447429 -1.23707e-16)
(-0.000930661 0.000336304 -9.67484e-17)
(0.000877793 0.000352905 0)
(0.000883939 0.000357498 -1.99429e-16)
(0.000924079 0.000345519 0)
(0.000873265 0.000336568 9.67646e-17)
(0.000942746 0.000430583 1.28475e-16)
(-2.2379e-05 0.000884708 -9.13948e-17)
(0.000980187 0.000261049 2.88888e-16)
(-9.08061e-06 0.00124339 4.54409e-17)
(-0.000929578 0.000348833 -1.99513e-16)
(-0.000603073 0.00027135 1.00284e-16)
(0.00087762 0.000278306 -9.63154e-21)
(0.00097902 0.000334818 -2.48624e-16)
(-0.000927882 0.000361856 2.91595e-16)
(0.000941372 0.000350046 0)
(0.000857208 0.00057554 -1.77128e-16)
(0.000916441 0.000270302 -9.48484e-17)
(0.000907092 0.00032525 -1.78767e-16)
(-0.000937982 0.000302178 -9.12345e-17)
(-0.000923721 0.000384473 1.95448e-16)
(0.000899385 0.000356075 0)
(0.000972224 0.00029879 0)
(-0.000325526 0.000145838 -2.17178e-16)
(-0.000979478 0.000414375 1.19564e-16)
(-0.000950104 0.000293358 0)
(-0.000926118 0.00033919 0)
(0.000970738 0.00031161 0)
(-0.000926246 0.000356311 1.92786e-21)
(-0.000931476 0.000401822 9.36788e-17)
(-0.00094866 0.000308412 -9.37999e-17)
(0.000928618 0.000369536 3.99168e-21)
(-0.000932805 0.000350365 0)
(0.000835523 0.000353705 0)
(0.000855199 0.00111117 -1.16375e-17)
(-0.000989138 0.000419391 2.29079e-16)
(0.000936371 0.000336554 0)
(0.000814132 0.000417018 2.14591e-16)
(0.000878481 0.00037571 2.17941e-16)
(-0.000988131 0.000411217 1.14319e-16)
(-0.000122296 0.00124922 -7.02888e-21)
(-0.000897376 0.000371859 1.75079e-16)
(-0.000936022 0.000327634 1.91952e-16)
(0.000859365 0.000327913 0)
(-0.000928958 0.000349263 3.00573e-16)
(-0.000920817 0.000431862 -9.52175e-17)
(0.000919618 0.000356995 0)
(-0.000926522 0.000361051 0)
(0.000791445 0.000336444 3.43573e-16)
(0.000912249 0.000406796 0)
(0.000899391 0.000327452 0)
(0.000938254 0.000455801 2.58471e-17)
(0.000912855 0.000322685 0)
(0.000920446 0.000393816 -3.67874e-16)
(-0.000897847 0.000430053 0)
(-0.000895195 0.000425898 -1.80868e-16)
(-0.000894565 0.000424738 2.70925e-16)
(-0.000884494 0.000416808 8.88779e-17)
(0.00126285 0.000731842 1.48759e-16)
(-0.000288134 0.00132266 0)
(0.0009158 0.000416489 2.13765e-16)
(-0.000935377 0.000338504 -1.94081e-16)
(0.000728175 0.00038918 -1.90309e-16)
(-0.000941528 0.000302907 0)
(0.000832786 0.000324858 -1.76632e-16)
(0.000905652 0.000318178 -2.9806e-18)
(-0.000924346 0.000357601 9.32587e-17)
(-0.00020569 0.00143552 -1.77909e-16)
(-0.000458768 0.00124366 1.11841e-17)
(0.000614181 0.000321488 0)
(0.000927811 0.000400474 0)
(0.0010097 0.000353742 0)
(0.000922432 0.000387509 5.93837e-21)
(-0.000933813 0.000328342 0)
(0.000903092 0.000338627 0)
(-0.000905465 0.000420984 -1.4009e-16)
(-0.000896493 0.000415394 1.83785e-16)
(2.72963e-05 0.00124462 -1.84694e-16)
(-0.000874361 0.000338283 1.993e-16)
(-0.000891159 0.000422497 -4.53595e-17)
(0.000921438 0.000384114 1.95366e-16)
(0.000976412 0.000338639 -6.15121e-17)
(-0.000920939 0.000359015 1.85471e-16)
(0.000950766 0.000415719 0)
(-0.000898198 0.00042456 0)
(-0.000928556 0.000350002 0)
(-0.000937039 0.00035889 -1.08727e-16)
(0.000898686 0.000322749 -1.93045e-16)
(0.000857076 0.000361399 3.77032e-21)
(-0.000925872 0.00036075 0)
(-0.0009291 0.000337696 9.83248e-17)
(-0.000572366 0.00113615 0)
(0.000782442 0.000484264 0)
(0.000142781 0.00137833 8.61754e-17)
(0.000872663 0.000354272 5.74631e-17)
(-0.000904495 0.00041053 0)
(-0.000900569 0.000418626 0)
(-0.000900567 0.000415517 1.88218e-16)
(-0.000903798 0.00041367 -1.86175e-16)
(-0.000939705 0.000308507 2.97771e-16)
(-9.21248e-05 0.000237371 5.13889e-17)
(-0.000957921 0.00037127 -5.90069e-17)
(-0.000885558 0.000416831 6.23707e-17)
(0.000902633 0.000358091 2.23737e-17)
(-0.000932194 0.000331218 -9.6259e-17)
(-0.000254387 0.000934436 -1.01156e-16)
(-0.000921362 0.00044152 1.89327e-16)
(-0.000934682 0.00033379 1.92817e-16)
(0.00107335 0.00071704 0)
(-0.000104031 0.00093621 0)
(-0.000971507 0.000400554 6.08398e-21)
(0.000881505 0.000350652 2.04397e-16)
(0.000925514 0.000384917 -1.0565e-16)
(-0.00089771 0.000414932 1.81889e-16)
(0.000801255 0.000296896 -1.31318e-16)
(0.000161021 0.000108138 1.07918e-16)
(-0.000900668 0.000415843 -3.6559e-16)
(1.13905e-05 0.00123598 0)
(-0.00106194 0.000378485 -3.66792e-17)
(-0.000907584 0.000412579 -2.11764e-16)
(-0.000904734 0.000413501 1.90021e-16)
(-0.000322047 0.00016213 2.17219e-16)
(-0.000928331 0.000339863 0)
(0.000985085 0.000205979 1.23014e-16)
(-0.000900289 0.000412927 -9.37855e-17)
(-0.000922585 0.000357993 -1.00073e-16)
(0.000934737 0.000338802 0)
(-0.000901479 0.000414678 0)
(-0.000626253 0.00136842 1.37278e-16)
(-0.000957444 0.000323898 -1.83739e-16)
(0.000901643 0.000310861 0)
(0.000939974 0.000435652 2.37181e-16)
(0.000899508 0.00035851 1.23125e-17)
(-0.000185058 0.00100574 2.58444e-16)
(-0.000929133 0.000351237 0)
(0.000876973 0.000373542 1.98133e-16)
(0.000909524 0.000344514 -2.63564e-16)
(-0.000930276 0.000336704 1.94298e-16)
(0.000964241 0.000461704 0)
(0.000154344 0.00010511 -1.10466e-16)
(-0.00101133 0.000422372 -2.48205e-22)
(-0.000161856 0.00127351 9.63415e-17)
(0.000902201 0.000340457 0)
(-0.000937792 0.000313089 -2.99178e-16)
(0.000837091 0.000474696 3.93349e-16)
(0.000821281 0.000476586 -9.12448e-17)
(0.000910855 0.000357197 -1.32951e-17)
(0.000913891 0.000309392 -1.26248e-16)
(0.000914244 0.000361742 1.94439e-16)
(0.000918897 0.000339445 0)
(-0.00101957 0.000306894 1.4358e-16)
(-0.000962375 0.00031396 -1.87093e-16)
(-0.000908771 0.000405371 -7.47202e-19)
(0.000863113 0.000418114 0)
(0.000846782 0.000371692 2.14673e-16)
(0.000293478 0.000103395 2.31986e-16)
(-0.000923271 0.000344145 1.95535e-16)
(-0.000898815 0.000411996 2.07964e-16)
(-0.000920268 0.000418759 0)
(-0.000567993 0.00133526 1.96764e-16)
(-0.000932476 0.000338817 5.90808e-21)
(0.000861805 0.000323677 1.14695e-16)
(-0.00092746 0.000341569 0)
(-0.000905275 0.000411983 -1.18784e-17)
(-0.000904214 0.000414697 0)
(-0.000903424 0.00041439 -1.85913e-16)
(-0.000930436 0.000362321 0)
(-0.000128442 0.00137493 -1.19593e-16)
(0.000608671 0.000342563 -3.44561e-16)
(0.000895682 0.000459382 1.25598e-16)
(-0.000929905 0.000339558 9.79718e-17)
(0.000888373 0.000351112 0)
(0.000949509 0.00045058 -1.26567e-16)
(-0.000156352 0.00135341 -1.90456e-16)
(0.00055794 0.000187613 -2.23908e-16)
(0.000900203 0.00036913 0)
(0.000919995 0.000407281 0)
(0.00089382 0.000380141 -1.87618e-16)
(-0.000936119 0.00031833 0)
(-0.000923479 0.000352532 1.96572e-16)
(-0.000229556 0.00149029 -6.17612e-18)
(-0.000979689 0.000423233 -1.01492e-16)
(-0.000856772 0.00032943 6.10883e-17)
(0.000884223 0.000342755 3.89327e-16)
(-0.00065827 0.0020272 -1.46079e-16)
(0.00151219 0.000595877 -1.97879e-16)
(0.000857928 0.000393245 -2.12587e-16)
(-0.000917324 0.0003562 9.64313e-17)
(-0.00091841 0.00042887 -1.21775e-17)
(-0.00089715 0.000418044 -1.89496e-16)
(0.000897668 0.000342592 2.09791e-16)
(-0.000922641 0.000346411 0)
(-0.000927587 0.000342397 9.90857e-17)
(-0.00106082 0.000375417 1.50961e-16)
(-0.000930871 0.000442633 0)
(-0.000917086 0.000420747 0)
(0.000949514 0.000441206 -1.23285e-16)
(0.00085247 0.000328174 0)
(-0.000928029 0.000349813 0)
(0.000865494 0.000325979 0)
(-0.000904765 0.000413308 1.18325e-17)
(-0.000915489 0.00040845 7.54743e-19)
(0.000839935 0.000276394 0)
(0.000908106 0.000339501 1.92892e-16)
(-1.16526e-05 0.00124479 0)
(0.00090387 0.000297878 0)
(-0.000931265 0.000342057 4.92542e-17)
(-0.000936247 0.000334539 -3.01487e-16)
(9.27008e-05 0.000550213 0)
(-0.000920785 0.000354858 -1.9342e-16)
(-0.000965777 0.000213936 9.23828e-17)
(-0.000973172 0.000378506 -4.34898e-21)
(-0.000989352 0.000332522 -2.43399e-16)
(-0.00106155 0.000367697 1.51163e-16)
(-0.000907072 0.000430327 0)
(-0.00093743 0.000323801 2.02117e-16)
(-0.00092025 0.000353562 1.00296e-16)
(0.000905304 0.000341948 0)
(-0.00091148 0.000313996 1.62547e-16)
(-0.000924498 0.000344689 -2.68742e-16)
(4.59527e-07 0.00120786 0)
(-0.000900563 0.000409896 -2.8044e-16)
(-0.000929615 0.000384703 0)
(-0.000930647 0.000346312 0)
(0.00092044 0.000337993 2.0312e-16)
(-0.000927498 0.000339417 1.01386e-16)
(0.000807785 0.000291468 2.14784e-16)
(0.000917645 0.000370338 -2.03934e-16)
(-0.000651218 0.000316545 0)
(-0.000983417 0.000330134 0)
(-0.000921379 0.000354946 0)
(0.000901844 0.00035096 -2.12711e-16)
(0.000918314 0.000396499 0)
(0.000910804 0.00034564 0)
(-0.000987592 0.000428316 -2.99366e-16)
(0.000137987 0.0012182 2.17988e-16)
(-0.000910963 0.000425629 1.92281e-16)
(0.000942821 0.000289272 -2.15591e-16)
(-1.62913e-05 0.00064537 -6.19436e-17)
(-0.000926523 0.00036132 0)
(-0.000923344 0.000392749 2.99758e-16)
(-0.000884552 0.000418791 -1.80341e-16)
(9.61515e-05 0.00094623 1.08288e-16)
(0.000963494 0.000193732 0)
(0.000994435 0.000256266 1.14708e-16)
(0.000871044 0.000371193 1.77803e-16)
(-0.000185406 0.000140633 2.10734e-16)
(-0.000924177 0.000342149 -9.0394e-17)
(0.000910042 0.000360416 0)
(0.000565035 0.000212999 0)
(0.000781254 0.000238504 3.86493e-16)
(-0.000922495 0.000355624 0)
(0.000957146 0.000306275 -1.0723e-16)
(-0.000989822 0.000256489 1.26095e-16)
(-0.000929126 0.000353961 9.58129e-17)
(0.000879815 0.000352298 -1.95169e-16)
(-0.0010489 0.000393626 -1.35982e-16)
(-0.000875166 0.00036833 1.84901e-16)
(-0.00101039 0.000465096 1.01009e-16)
(-0.00069028 0.000272593 -1.08944e-16)
(-0.000930872 0.000351485 0)
(-0.000927124 0.000352531 0)
(-6.31939e-05 0.000464727 0)
(6.20207e-06 0.00120504 -2.50983e-16)
(-0.000986314 0.000344951 0)
(-0.000934377 0.000460444 -8.72312e-17)
(0.000898851 0.000345587 3.76167e-16)
(0.000862558 0.000365995 -1.11176e-16)
(0.000899625 0.000319276 3.79533e-16)
(0.000910509 0.000379836 -5.4916e-17)
(0.000904217 0.000343199 -5.54955e-21)
(-0.000918502 0.00037046 -4.91294e-17)
(-0.000920989 0.00035919 -9.63677e-17)
(-7.54209e-05 0.00142333 5.97397e-18)
(-0.000924234 0.00035647 -1.95298e-16)
(-0.000918141 0.0003843 -5.15036e-17)
(0.000861221 0.000374132 0)
(-0.000926743 0.000356105 -9.75879e-17)
(-0.000989955 0.000368789 -3.58925e-16)
(-0.000903324 0.000406036 -1.39396e-17)
(-0.000931136 0.000348026 0)
(-0.000939356 0.000303428 4.83501e-17)
(-0.000926437 0.000342994 -9.87677e-17)
(0.000981934 0.000432674 -2.08725e-16)
(-0.000919315 0.000364774 -9.94726e-17)
(0.000129186 0.00137583 6.96559e-18)
(0.000881537 0.000320315 2.44314e-17)
(-2.62749e-05 0.00135243 -1.98862e-16)
(-0.0010256 0.000426847 2.82355e-16)
(-0.000894327 0.000301755 -3.98533e-16)
(0.000902789 0.000348438 1.03055e-16)
(-0.0010269 0.000427238 1.25938e-16)
(0.000135074 0.000704762 8.11336e-17)
(-0.000916847 0.000363384 1.97982e-16)
(0.000877713 0.000299944 1.76672e-16)
(-1.00774e-05 0.00132715 0)
(-2.39569e-05 0.00117284 -2.83928e-16)
(-0.000920017 0.000380467 -1.57229e-16)
(0.000891042 0.000303797 -5.19589e-17)
(-1.04318e-05 0.00132363 7.90281e-19)
(0.00108254 0.00043075 9.76717e-17)
(-0.000851182 0.00034118 2.953e-16)
(-0.000929346 0.000353078 -5.09889e-17)
(-0.000940844 0.000331891 0)
(-0.000962511 0.000351397 2.29034e-16)
(0.000891787 0.000360565 -2.02298e-16)
(-0.000921252 0.000359942 -9.68022e-17)
(0.00088914 0.000352432 0)
(-2.12753e-06 0.00131643 -2.01874e-16)
(-0.000986422 0.000376881 1.2077e-16)
(0.00103664 0.000929358 -3.66331e-16)
(0.000915197 0.000348525 0)
(-5.88234e-06 0.00131661 0)
(0.00093941 0.000376728 5.94636e-21)
(3.88323e-06 0.00131278 -2.02112e-16)
(2.08149e-06 0.00131618 4.01907e-16)
(-0.000918462 0.000360549 4.98496e-17)
(-8.21028e-05 0.00135591 1.97709e-16)
(-3.50963e-06 0.0013118 0)
(-8.48491e-06 0.001318 2.01158e-16)
(-0.000919322 0.000358446 0)
(0.00106017 0.000589133 0)
(4.29241e-06 0.00131457 0)
(-2.05151e-06 0.00131441 -2.01441e-16)
(-0.000916607 0.00037633 0)
(-4.69297e-06 0.00131536 4.05276e-16)
(-0.000927459 0.000351386 0)
(-1.93813e-06 0.00131524 -2.02421e-16)
(-0.00092024 0.000358573 -2.93185e-16)
(-2.32683e-06 0.00131093 0)
(-0.000911185 0.00037806 9.67034e-17)
(-0.000415642 0.00150393 -4.71372e-17)
(0.000964894 0.000434489 2.5026e-16)
(0.000988886 0.000371244 0)
(2.63791e-07 0.00131424 1.45299e-20)
(-5.15454e-06 0.00131618 -1.99391e-16)
(-0.000936173 0.000307374 -8.51755e-17)
(0.0008798 0.000394771 -2.05745e-16)
(0.000791916 0.000322022 0)
(0.000898087 0.000345178 3.10265e-16)
(-9.75746e-07 0.00131462 2.02001e-16)
(-0.000917087 0.000359794 0)
(-3.23584e-05 0.00132923 2.00565e-16)
(-9.44439e-07 0.0013116 0)
(-2.25755e-06 0.00131363 -2.04882e-16)
(-0.000923501 0.00035993 0)
(0.000904819 0.000389909 1.95268e-16)
(-0.000926619 0.000354466 2.68299e-21)
(3.29068e-07 0.00131122 2.02887e-16)
(0.000917416 0.000336391 -4.19353e-16)
(0.000138338 0.000777477 0)
(-4.74653e-06 0.00131605 0)
(0.0010187 0.000470806 1.46626e-16)
(0.000901061 0.000313729 0)
(-0.000102915 0.00141053 0)
(-0.000926088 0.000350461 -3.52293e-16)
(-3.5327e-05 0.00134656 0)
(-0.000920996 0.00035928 9.75578e-17)
(-0.000781062 0.000667157 -5.25379e-17)
(-0.000916754 0.000376595 2.01113e-16)
(3.22345e-07 0.00131223 -4.04628e-16)
(-0.000941142 0.000345477 5.41576e-17)
(-0.000910679 0.000378107 1.92965e-16)
(-1.61703e-06 0.00131305 0)
(-3.21559e-06 0.00131106 -1.9825e-16)
(0.000848964 0.000286547 0)
(4.19636e-07 0.00131393 -2.04208e-16)
(8.26818e-07 0.00131266 0)
(-6.16471e-05 0.00136507 2.01277e-16)
(1.46221e-06 0.00117852 -2.27206e-16)
(-0.000900018 0.000388294 1.17407e-16)
(-1.90159e-05 0.00133157 9.81737e-20)
(0.000653515 0.00019179 0)
(-0.000948521 0.000346609 7.99856e-17)
(-0.000895883 0.000382202 4.68856e-17)
(2.78953e-06 0.0013105 4.05018e-16)
(-5.21937e-06 0.00131541 2.01603e-16)
(-0.000940181 0.000362279 -4.66002e-16)
(8.30577e-07 0.00131272 2.02685e-16)
(0.000829496 0.000262302 6.68418e-21)
(-6.75658e-06 0.00131292 2.00603e-16)
(-0.000929916 0.000353328 0)
(-0.00091564 0.000367943 5.12183e-17)
(-7.03209e-07 0.00131328 -1.45964e-20)
(0.000893548 0.000445828 2.10083e-16)
(-0.000924503 0.000360881 -1.02842e-16)
(-0.000911876 0.000376417 -8.99001e-17)
(-3.26055e-06 0.0013148 -2.01526e-16)
(0.000898077 0.000352299 3.51597e-18)
(-1.71308e-07 0.00131381 -1.46005e-20)
(-0.000932872 0.000352189 4.80867e-17)
(4.24049e-06 0.00131146 0)
(-0.000926878 0.000350179 0)
(-7.65081e-06 0.00131483 -2.01468e-16)
(6.6458e-07 0.00131363 2.02267e-16)
(0.000895886 0.00037312 -2.4528e-17)
(-0.00094445 0.000324598 2.19721e-16)
(-6.96465e-06 0.00131312 1.99773e-16)
(1.63586e-06 0.00131125 0)
(-0.00091839 0.000373127 0)
(-0.000914327 0.00037623 1.53403e-16)
(-0.000944429 0.0002998 0)
(-4.88518e-05 0.000810141 -1.08309e-16)
(-2.46136e-07 0.0013137 2.02711e-16)
(-0.00091214 0.000375079 -1.45373e-16)
(-0.000919411 0.000360775 0)
(-0.000915346 0.00034833 5.3013e-17)
(-1.22778e-05 0.00131757 1.97008e-16)
(6.84565e-08 0.00131177 -1.46737e-20)
(-0.000921938 0.000352389 -5.1413e-17)
(0.000534246 6.43555e-05 -2.18994e-16)
(-1.17089e-05 0.00132049 -2.00427e-16)
(-3.79064e-06 0.00131519 2.02106e-16)
(1.83865e-06 0.00131194 2.02983e-16)
(-1.81138e-07 0.00131626 -2.00157e-16)
(0.00109576 0.000556332 -1.92049e-16)
(-7.87107e-06 0.00131312 -2.0111e-16)
(-0.00092868 0.00035055 0)
(-0.000912244 0.000341664 0)
(0.00087754 0.000341878 0)
(-2.02314e-06 0.00131166 -2.03571e-16)
(-0.00091087 0.000377594 2.48143e-16)
(0.000892148 0.00033124 -1.57151e-16)
(-0.000879612 0.000356925 2.71355e-16)
(-0.000921099 0.000358417 -1.96917e-16)
(-0.000922522 0.000356651 -1.01263e-16)
(-0.000994855 0.000468252 -1.00455e-16)
(-3.89861e-06 0.00131224 -4.05796e-16)
(3.59685e-06 0.00131179 8.46291e-20)
(-0.000923872 0.000382946 -5.8005e-17)
(-0.000923148 0.000369938 4.59961e-17)
(-0.000922892 0.000358498 -5.05269e-17)
(5.29738e-06 0.00131339 -2.02618e-16)
(1.09364e-06 0.00131177 4.10229e-16)
(-6.47552e-06 0.00131318 -2.02963e-16)
(1.11571e-06 0.00131316 -7.95373e-19)
(-0.000920745 0.000364678 4.91297e-17)
(-4.55814e-06 0.00131232 0)
(6.30167e-06 0.00131273 -2.03785e-16)
(4.2544e-06 0.00131132 2.02752e-16)
(5.4409e-06 0.00131347 3.50528e-20)
(-0.000923372 0.000349311 1.0207e-16)
(-7.37943e-06 0.00132044 0)
(-0.000924728 0.000351663 -2.00617e-16)
(-0.000951375 0.000343323 0)
(0.000904476 0.000346099 -2.2246e-16)
(-5.41669e-07 0.00131256 -1.57906e-18)
(0.000862379 0.00034781 1.97904e-16)
(8.35399e-07 0.00131249 -1.45346e-20)
(-7.9789e-05 0.00134708 0)
(-5.35502e-05 0.00133013 -1.99272e-16)
(-0.000924705 0.000352771 0)
(-0.000931952 0.000351629 -9.86566e-17)
(9.03368e-06 0.00131162 0)
(-0.000917427 0.000355292 -2.14074e-16)
(-0.000921901 0.000361042 -1.06355e-16)
(0.000899787 0.000358582 2.13742e-16)
(5.08931e-07 0.00131223 -2.03085e-16)
(-7.56143e-06 0.00131321 -2.03161e-16)
(-0.000926342 0.000366141 5.5554e-17)
(-1.44732e-06 0.00131261 -2.00308e-16)
(-0.000913771 0.000347068 3.11588e-16)
(-6.15852e-06 0.00131207 -2.02292e-16)
(1.867e-06 0.00131281 -1.45605e-20)
(-0.000921674 0.000398925 -2.36561e-16)
(-8.29771e-06 0.00131298 2.00631e-16)
(0.000906091 0.000342398 0)
(-0.000920493 0.000360147 -5.02514e-17)
(-4.62643e-07 0.00131229 3.18894e-18)
(-0.000927043 0.000346916 1.00775e-16)
(-2.30021e-07 0.00131189 -1.60074e-18)
(-0.000920795 0.000353521 5.04607e-17)
(-0.000873686 0.000322436 0)
(3.47942e-06 0.00131289 -1.46334e-20)
(-0.00100423 0.000423854 3.00918e-16)
(7.98809e-07 0.00131353 2.04472e-16)
(0.000841094 0.00042004 -5.87778e-17)
(-0.000891035 0.000391362 1.95206e-16)
(-2.83711e-07 0.00131268 2.04617e-16)
(0.000670743 0.000265201 2.15027e-16)
(-1.71209e-06 0.00131275 2.03322e-16)
(1.05261e-06 0.0013126 3.17272e-18)
(0.000768675 0.000281272 2.27234e-16)
(0.000823276 0.000291263 -2.12542e-16)
(0.000936298 0.0003686 0)
(-0.000992797 0.00040531 0)
(-7.62914e-06 0.00131288 -1.59109e-18)
(0.000854221 0.000324695 2.79972e-16)
(-7.41148e-06 0.00131211 -1.57973e-18)
(-0.000922758 0.000357476 -9.82433e-17)
(0.000842677 0.000282856 0)
(6.92495e-06 0.00131235 -4.05558e-16)
(1.14277e-06 0.00131243 -4.08073e-16)
(-0.000918036 0.000370322 0)
(-0.000923559 0.000348826 0)
(7.97097e-07 0.00131346 -4.05524e-16)
(-2.61898e-05 0.00132594 0)
(-0.000914961 0.000381426 -1.95481e-16)
(-1.75947e-05 0.00131996 -4.00518e-16)
(-0.000839181 0.000305594 0)
(0.000953205 0.000295943 5.24853e-17)
(7.42817e-08 0.00131105 -1.60741e-18)
(3.01105e-06 0.00131384 2.04313e-16)
(0.000717969 0.000447704 -7.03681e-18)
(3.5396e-07 0.0013124 -2.04795e-16)
(-0.000928644 0.000342368 1.57439e-16)
(-0.000991477 0.000456487 1.38985e-16)
(-8.20342e-06 0.00131266 2.0187e-16)
(-0.000926651 0.000346445 1.45749e-16)
(-1.43745e-06 0.00131302 2.04815e-16)
(-7.66077e-06 0.00131227 -2.02608e-16)
(-8.61657e-06 0.00131248 -2.0191e-16)
(-0.000914526 0.000372006 0)
(-0.000925117 0.00034766 -4.98686e-17)
(-9.25817e-07 0.00131218 -7.98792e-19)
(7.86704e-06 0.00131274 0)
(-0.000913214 0.000371604 1.9869e-16)
(-0.000921403 0.000347766 0)
(1.18944e-06 0.00131245 -2.03404e-16)
(-6.39587e-06 0.00131663 3.16235e-18)
(0.000898291 0.000348891 -2.14737e-16)
(1.199e-06 0.00131256 -4.10857e-16)
(-0.000992292 0.000385539 3.41579e-16)
(-4.89385e-07 0.00131252 0)
(-4.04849e-07 0.0013128 2.02763e-16)
(-2.58736e-07 0.00131266 0)
(-3.13295e-08 0.00131247 2.02823e-16)
(9.84107e-07 0.00131235 -2.0231e-16)
(0.000759902 0.000300229 1.21378e-16)
(3.4795e-07 0.0013121 2.02452e-16)
(6.05865e-07 0.00131513 -1.46588e-20)
(-8.82615e-09 0.0013125 2.04805e-16)
(-8.94256e-06 0.00131271 4.04652e-16)
(-0.000925015 0.000353649 0)
(-0.000924613 0.000355995 -5.2528e-17)
(-7.79847e-06 0.00131244 0)
(-1.78671e-07 0.00131257 0)
(-9.19826e-07 0.00131202 -2.06615e-16)
(7.8687e-06 0.00131311 2.03101e-16)
(6.51807e-06 0.00131312 2.03866e-16)
(-0.000922299 0.000359946 2.57699e-16)
(7.02007e-06 0.00131252 2.03297e-16)
(-5.05194e-07 0.00131282 -2.04796e-16)
(-1.25005e-06 0.00131262 0)
(-3.48228e-07 0.00131251 -1.47071e-20)
(-0.000924418 0.000356055 1.00377e-16)
(7.79654e-06 0.00131268 0)
(7.38181e-06 0.00131221 2.03439e-16)
(-3.11049e-06 0.00131505 -2.0526e-16)
(-0.00092941 0.000346489 0)
(-7.43365e-09 0.00131254 0)
(0.000906699 0.000348999 -2.13233e-16)
(-1.52344e-07 0.00131343 1.59881e-18)
(-1.2622e-07 0.00131374 -3.98544e-19)
(-6.32931e-06 0.00131143 -7.92078e-19)
(-8.67312e-06 0.0013123 1.46025e-20)
(-6.96487e-06 0.00131173 7.92725e-19)
(-0.000928987 0.000410352 -1.24097e-16)
(-8.33381e-06 0.00131163 2.03613e-16)
(4.40316e-06 0.00131258 0)
(-8.17443e-06 0.00131182 2.02165e-16)
(-8.28983e-06 0.00131208 -2.02511e-16)
(-8.7449e-06 0.00131264 -2.03452e-16)
(-0.00111514 0.000912682 -3.08467e-16)
(-0.000212192 0.000262437 -3.843e-16)
(8.04652e-06 0.00131282 -2.03717e-16)
(-7.92111e-07 0.00131248 -2.03075e-16)
(9.25492e-08 0.00131278 -2.03029e-16)
(7.23557e-06 0.0013122 2.03501e-16)
(-0.000929147 0.000350502 -2.02476e-16)
(-9.27938e-06 0.00131205 2.02143e-16)
(-7.87051e-07 0.00131273 -2.02693e-16)
(-6.03368e-06 0.00131525 -4.03172e-16)
(-6.7547e-07 0.00131232 -1.60332e-18)
(8.59621e-06 0.00131231 2.02731e-16)
(0.00089964 0.000344907 2.13267e-16)
(-2.78266e-06 0.00131316 -2.02732e-16)
(5.14742e-07 0.00131251 -1.4591e-20)
(0.000958782 0.000395196 -2.63009e-16)
(-2.81655e-07 0.00131246 0)
(-5.70279e-07 0.0013125 0)
(-9.24724e-06 0.00131231 -4.06259e-16)
(-0.000924532 0.000354733 1.00718e-16)
(1.74588e-07 0.00131173 -4.00498e-19)
(-1.07189e-05 0.00131274 2.12282e-19)
(0.000904431 0.000340487 1.41757e-17)
(-9.85427e-06 0.00131339 2.03078e-16)
(9.75996e-06 0.00131278 2.03051e-16)
(8.94828e-06 0.00131254 -2.02904e-16)
(2.22787e-06 0.00131245 -2.03474e-16)
(-1.0481e-05 0.00131286 1.45957e-20)
(-0.000959911 0.000339 -2.15477e-16)
(-0.000781676 0.000298716 2.65481e-16)
(-9.70704e-07 0.00131121 -1.46754e-20)
(-5.97482e-07 0.00131243 -2.02593e-16)
(-0.000916481 0.000372735 5.11243e-17)
(8.33908e-07 0.00131255 -1.47074e-20)
(-9.66639e-06 0.00131187 8.05161e-19)
(9.70309e-06 0.00131231 -4.06048e-16)
(4.38996e-06 0.00131107 2.03836e-16)
(8.22985e-06 0.00131202 -2.03834e-16)
(8.09867e-06 0.0013123 -2.03829e-16)
(9.69088e-06 0.00131248 2.03128e-16)
(8.05921e-06 0.00131212 1.98682e-19)
(9.61907e-06 0.00131252 0)
(0.000906712 0.000342852 0)
(-7.82508e-06 0.00131262 2.04491e-16)
(-6.30911e-07 0.00131399 0)
(1.74166e-06 0.0013135 2.0374e-16)
(9.63898e-06 0.00131247 0)
(9.59683e-06 0.00131259 2.03196e-16)
(9.72645e-06 0.00131237 -9.91926e-20)
(1.04666e-06 0.0013135 1.99366e-16)
(8.73555e-06 0.00131305 0)
(-2.43255e-06 0.00131382 0)
(-8.11348e-06 0.00131362 -2.04711e-16)
(-0.000922278 0.000356795 -2.47004e-21)
(8.55711e-06 0.00131245 0)
(-1.94497e-05 0.00133488 0)
(8.41578e-06 0.00131247 0)
(-0.000902494 0.000344108 1.57172e-16)
(6.76156e-07 0.00131256 -2.02845e-16)
(-6.03701e-06 0.00131526 2.04684e-16)
(8.79958e-06 0.00131325 -9.94062e-20)
(-0.000902368 0.000378635 5.56772e-17)
(-0.000917402 0.000372884 -5.08326e-17)
(7.70771e-06 0.00131299 -2.03823e-16)
(-2.27119e-06 0.00131046 0)
(-3.26781e-07 0.00131482 -2.03903e-16)
(7.80046e-06 0.00131309 1.46483e-20)
(9.69369e-06 0.00131229 -2.03663e-16)
(-1.04203e-06 0.0013096 4.05047e-16)
(0.000876497 0.000292548 -3.65599e-16)
(0.0009053 0.000351227 -4.30924e-16)
(-1.31894e-06 0.00131295 4.07256e-16)
(0.000892999 0.000351592 0)
(7.62026e-06 0.00131309 0)
(9.84234e-06 0.00131212 -3.97003e-19)
(-0.000943089 0.000373515 -1.84024e-16)
(-0.000920687 0.000377116 1.05907e-16)
(6.11672e-07 0.00131198 -1.00205e-19)
(7.69132e-06 0.00131321 2.03874e-16)
(8.26354e-07 0.00131252 -2.03133e-16)
(-0.000841554 0.000805073 1.02778e-16)
(7.28233e-06 0.00131306 7.96859e-19)
(-9.43995e-06 0.00131323 2.03305e-16)
(-7.72034e-07 0.00131433 2.04075e-16)
(-0.0010516 0.000538403 -2.01503e-16)
(7.52352e-06 0.00131348 0)
(-5.37957e-07 0.00131266 4.0158e-19)
(-1.99519e-06 0.00131392 -2.03108e-16)
(-0.000925223 0.000350799 0)
(0.000938883 0.000260167 3.8579e-16)
(-0.000911525 0.0003802 5.36686e-17)
(7.19547e-06 0.00131319 -7.9699e-19)
(1.01047e-06 0.00131294 -2.03832e-16)
(-8.40141e-06 0.00131175 -2.0366e-16)
(-0.000920713 0.00036993 3.041e-16)
(7.23007e-06 0.00131364 -2.04093e-16)
(-1.1063e-05 0.00131223 7.93033e-19)
(5.80102e-07 0.00131195 2.00594e-19)
(8.97165e-06 0.00131224 0)
(-3.41751e-07 0.00131456 0)
(9.08341e-06 0.00131213 0)
(9.44621e-07 0.00131298 0)
(-0.000922261 0.000350791 -5.05813e-17)
(-9.9e-06 0.00131175 0)
(-6.46169e-07 0.00131258 0)
(0.00097419 0.000457091 1.57512e-16)
(6.5042e-07 0.00131298 0)
(-5.32667e-05 0.0013662 0)
(-2.64404e-07 0.00131455 4.08016e-16)
(4.86462e-07 0.00131196 0)
(0.000898491 0.000329676 -4.81152e-17)
(0.000903868 0.00035104 0)
(0.000802703 0.000406459 1.05925e-16)
(0.000885171 0.000318218 -2.06201e-16)
(1.02816e-06 0.00131326 -4.0723e-16)
(-0.000831017 0.000362145 0)
(3.99953e-07 0.00131301 -1.99184e-19)
(-0.000915928 0.00037073 -9.91595e-17)
(1.01067e-05 0.00131233 0)
(0.000447187 0.000511655 0)