/*--------------------------------*- C++ -*----------------------------------*\
  =========                 |
  \\      /  F ield         | OpenFOAM: The Open Source CFD Toolbox
   \\    /   O peration     | Website:  https://openfoam.org
    \\  /    A nd           | Version:  12
     \\/     M anipulation  |
\*---------------------------------------------------------------------------*/
FoamFile
{
    format      ascii;
    class       surfaceScalarField;
    location    "0.1";
    object      phi;
}
// * * * * * * * * * * * * * * * * * * * * * * * * * * * * * * * * * * * * * //

dimensions      [0 3 -1 0 0 0 0];

internalField   nonuniform List<scalar> 
6438
(
-1.63543e-08
2.02906e-06
-2.01271e-06
-1.79903e-08
2.35705e-06
-2.33906e-06
-2.20873e-06
-3.72349e-07
2.58107e-06
2.09588e-06
-2.29907e-06
2.03188e-07
3.22426e-06
-2.51775e-06
-7.06515e-07
7.37395e-07
2.48687e-06
-2.50629e-06
2.97563e-07
-2.17823e-06
2.16024e-06
2.3506e-06
-2.80863e-06
4.5803e-07
2.18794e-06
-2.5637e-06
3.75766e-07
-2.11711e-06
2.5703e-06
-4.53193e-07
5.09254e-07
-2.32254e-06
1.81329e-06
-2.61414e-06
4.97034e-07
2.01087e-06
9.23793e-07
-2.93467e-06
1.88834e-06
-1.9047e-06
-1.06184e-07
2.2124e-06
-2.10621e-06
-2.78814e-06
2.7027e-06
8.54473e-08
-2.11179e-06
2.56113e-06
-4.49348e-07
-2.61074e-06
4.98955e-07
8.29537e-07
1.75722e-06
-2.58676e-06
-6.05411e-07
-3.96495e-07
1.00191e-06
-1.2955e-07
2.31906e-06
-2.18951e-06
-2.14848e-06
-3.48696e-07
2.49718e-06
-2.62723e-06
1.15431e-06
1.47292e-06
-2.28498e-06
2.15543e-06
-2.02935e-06
2.46773e-06
-4.38374e-07
-2.4744e-06
3.25915e-07
2.35114e-06
-1.84188e-06
-2.13464e-06
-3.96158e-07
2.53079e-06
-2.57778e-06
5.48423e-07
1.98247e-06
-2.48353e-06
5.01056e-07
1.11411e-08
-2.42145e-06
2.41031e-06
2.36839e-06
-2.38056e-06
1.21725e-08
-2.34642e-06
3.96034e-07
1.95039e-06
-3.17222e-06
5.1252e-07
2.6597e-06
2.2291e-06
-2.21795e-06
2.24735e-06
-1.51468e-07
1.45908e-06
2.04196e-06
-3.50104e-06
-7.15834e-07
2.72671e-06
-2.09253e-06
2.29866e-06
-2.06136e-07
-2.42614e-06
2.40317e-06
2.2972e-08
-1.01009e-06
1.83963e-06
2.16918e-06
1.87529e-08
-2.60674e-06
2.55411e-06
5.26234e-08
2.33976e-06
-3.5729e-07
-1.74594e-06
1.63976e-06
-3.02891e-06
5.11165e-07
2.30036e-06
2.22439e-07
-2.5228e-06
-1.79347e-06
-5.52952e-07
-3.26867e-07
-2.15383e-06
2.44428e-06
-2.90448e-07
-1.61075e-06
2.31964e-06
-7.08885e-07
2.32524e-06
-2.32524e-06
7.29007e-07
1.76399e-06
2.32241e-07
-1.99623e-06
1.03462e-06
5.00616e-07
-1.53523e-06
1.97044e-06
4.08343e-07
-2.37879e-06
1.90128e-06
-7.46972e-07
-1.10262e-06
-1.9263e-06
-2.25613e-08
2.04936e-06
-2.0268e-06
-2.52896e-06
2.52896e-06
-2.61768e-06
2.64306e-06
-2.53796e-08
1.04846e-07
1.9494e-06
-2.05425e-06
7.43759e-09
-2.38731e-06
2.37988e-06
2.21488e-06
-2.20744e-06
-2.41455e-06
2.79918e-07
-2.42117e-06
-1.8557e-07
-2.08079e-06
2.28544e-06
-2.04646e-07
2.30279e-07
1.99321e-06
-2.22348e-06
-2.44757e-06
2.35417e-06
9.33918e-08
2.38659e-06
-2.38659e-06
2.21985e-06
1.30741e-07
-1.45769e-06
-1.10601e-06
2.07713e-06
4.38999e-07
-2.51612e-06
-2.03925e-06
-3.86896e-07
1.81071e-06
1.40098e-06
-3.21169e-06
-2.8063e-06
1.79621e-06
-1.79339e-06
-1.01291e-06
2.46452e-06
-3.87399e-07
1.47225e-06
-4.3763e-07
2.00137e-06
2.25891e-07
-2.22726e-06
-2.46684e-06
-1.50842e-07
-3.52098e-07
-6.00049e-07
-1.92891e-06
2.67366e-06
-2.67366e-06
-1.77021e-06
-6.77359e-07
-1.61143e-07
-3.01107e-06
-2.3067e-06
2.29804e-06
8.65737e-09
8.3056e-08
-2.33875e-06
2.2557e-06
-2.57157e-07
2.25853e-06
2.30987e-06
5.85153e-08
-2.4129e-06
-3.75241e-07
-2.43515e-06
2.4957e-06
-6.0551e-08
2.54696e-06
-1.42472e-06
-1.12224e-06
2.2827e-06
-2.19964e-06
4.74758e-08
2.56332e-06
-1.30437e-06
-1.25896e-06
1.4563e-06
1.09066e-06
2.34943e-06
-2.34943e-06
-1.80255e-06
2.58416e-06
-7.81608e-07
-2.2639e-06
1.10071e-07
-3.10275e-07
-1.83262e-06
2.14289e-06
-2.12267e-06
8.34204e-08
-2.27393e-06
4.71381e-07
1.96022e-06
4.29237e-07
-2.38945e-06
-1.42187e-07
2.1024e-06
-2.04882e-06
2.36678e-06
-3.17968e-07
-2.17496e-06
8.24333e-08
1.50696e-06
1.05636e-06
2.26846e-06
-4.55172e-07
9.75369e-08
2.2277e-06
-1.95739e-06
-1.65278e-07
2.04512e-06
4.365e-07
-2.48162e-06
-1.13146e-06
-9.76228e-07
2.10769e-06
1.4897e-06
-1.90767e-07
-1.29893e-06
-2.42145e-06
4.92978e-07
2.42276e-06
-2.91574e-06
-1.1254e-06
5.19993e-07
2.42018e-06
4.75437e-08
2.6294e-06
-1.36057e-06
-1.26883e-06
8.82012e-07
1.74739e-06
2.44479e-06
-3.99668e-07
2.98882e-06
-1.52975e-06
-2.21404e-06
7.69199e-09
2.20634e-06
-3.16811e-06
3.20944e-07
2.84716e-06
-3.69055e-08
-2.20017e-06
2.23707e-06
2.41821e-06
1.35909e-07
-1.8667e-06
1.84414e-06
-2.22654e-06
2.27097e-06
-4.44241e-08
2.2551e-06
-2.29201e-06
2.32752e-06
-2.32752e-06
2.28963e-06
6.74125e-08
2.29459e-06
-5.30602e-07
2.26329e-06
-2.15844e-06
-1.99404e-06
1.68376e-06
2.09697e-08
2.1981e-06
-2.21907e-06
2.59066e-06
-1.81325e-06
-7.7741e-07
-2.38731e-06
-3.48598e-08
2.71223e-08
-2.20535e-06
-2.20788e-06
1.27091e-07
2.4895e-08
2.2042e-06
2.13315e-06
-1.90287e-06
-2.19963e-06
1.5081e-07
2.2308e-06
-6.16185e-08
-8.06089e-08
1.94252e-06
-1.86191e-06
1.5318e-06
1.05886e-06
-2.28663e-06
4.9274e-07
1.79389e-06
2.3312e-06
-1.15595e-08
-3.08382e-06
2.78658e-07
2.80516e-06
-3.16247e-08
-2.18869e-06
2.22032e-06
1.45435e-06
3.53525e-08
1.39983e-07
2.19121e-06
2.16819e-06
1.82943e-07
2.24219e-06
-2.27381e-06
-2.33578e-06
-7.71184e-08
2.38443e-06
-2.56454e-06
1.80116e-07
-2.12978e-06
-8.42531e-08
-2.59301e-06
1.12412e-06
1.46889e-06
-9.84345e-10
2.24087e-06
7.81926e-08
-2.11077e-06
2.45458e-06
-3.43803e-07
-2.32143e-06
2.0022e-06
3.19231e-07
-3.14701e-07
8.12612e-07
-4.97911e-07
-7.28966e-07
-1.84881e-06
-2.33875e-06
-1.86427e-08
2.23352e-06
6.87766e-07
1.89639e-06
-3.78859e-08
-2.27393e-06
-1.10454e-08
-4.86332e-08
-2.48509e-06
2.09893e-06
3.86155e-07
-1.45515e-07
1.85439e-06
3.6546e-07
3.63362e-06
-1.59166e-06
-7.67738e-07
-1.843e-06
2.27841e-06
3.14588e-08
-1.95361e-06
8.22153e-07
-8.807e-07
-1.38577e-06
2.26647e-06
-7.84278e-07
-1.82986e-06
-1.27323e-06
3.08394e-06
-2.35172e-06
7.77915e-08
-2.21987e-06
2.22832e-06
-8.44695e-09
-1.83072e-06
1.75011e-06
-2.69352e-08
-2.17546e-06
2.2024e-06
-2.39293e-06
4.121e-08
1.99416e-06
-2.37268e-06
3.78517e-07
2.22264e-06
-2.24957e-06
1.98521e-06
-7.50795e-07
-1.23442e-06
-3.00471e-06
1.06669e-06
1.93802e-06
2.03512e-06
1.95687e-07
1.68001e-06
1.02268e-06
4.90451e-07
2.18321e-06
-5.85244e-07
-2.08842e-06
-2.42332e-06
2.40125e-06
2.20719e-08
-2.41647e-06
-6.8487e-09
-2.40474e-06
-1.17335e-08
8.31545e-09
6.26354e-07
-3.49854e-06
2.87219e-06
-2.59494e-06
3.08792e-06
2.04937e-06
-2.0284e-06
2.19117e-06
9.15233e-08
1.78708e-07
1.80651e-06
-2.20017e-06
-1.99464e-06
1.98556e-06
2.4665e-07
-2.23221e-06
-1.1228e-08
-4.75318e-07
3.49078e-06
-3.01546e-06
3.31058e-06
-2.38679e-06
-1.00573e-06
1.50634e-06
-6.38493e-07
-1.95452e-06
-1.73425e-06
-1.27045e-06
-2.19896e-06
-1.36821e-07
-2.2155e-06
2.21513e-06
3.7749e-10
-3.48593e-07
2.07795e-06
-1.72936e-06
-2.38059e-06
2.39716e-06
-1.65761e-08
-2.35552e-06
-2.50665e-08
-3.02541e-06
1.9046e-07
2.83495e-06
-2.11188e-06
-1.37026e-07
2.2489e-06
2.37249e-06
2.46766e-08
-4.21348e-07
-2.59084e-06
9.47655e-07
1.64318e-06
1.43262e-08
-1.37101e-06
-1.21982e-06
-3.22494e-08
-2.43993e-08
-2.1624e-06
2.1868e-06
-2.2226e-06
1.10718e-07
2.00871e-06
2.69699e-07
2.31464e-06
-2.21711e-06
2.20083e-06
-2.22523e-06
2.19223e-06
6.28776e-08
1.07865e-06
2.23193e-06
2.27743e-06
-4.23031e-07
-1.79786e-07
-2.98832e-06
-1.29083e-07
1.8063e-06
-1.67722e-06
-2.34433e-06
-1.11881e-08
-2.34391e-06
-4.21416e-10
2.36216e-06
-2.34506e-06
-1.70911e-08
2.33717e-06
2.49866e-08
-2.18869e-06
5.40646e-07
-7.4174e-07
2.01094e-07
-2.64744e-06
1.55158e-06
1.09586e-06
1.18317e-06
-2.37298e-06
1.18981e-06
-2.07158e-06
-1.92318e-07
-2.20805e-06
2.19706e-06
1.09817e-08
-2.29529e-06
2.21354e-06
8.17485e-08
-1.83381e-07
2.34911e-06
-2.16573e-06
-2.27891e-06
5.63191e-08
-2.531e-06
3.15736e-06
-2.33147e-07
-2.05348e-06
-2.37941e-06
2.19603e-06
-1.86418e-06
-1.70902e-07
2.03508e-06
-1.74194e-06
2.3224e-06
1.47713e-08
-1.58677e-06
-4.2543e-07
4.71724e-07
-4.6294e-08
-2.15134e-08
8.58837e-08
-3.01934e-06
2.93346e-06
-1.6882e-06
-8.1809e-07
-2.35326e-06
2.30634e-06
4.69237e-08
-2.31732e-06
-3.59345e-08
-8.32078e-07
5.17377e-07
2.18812e-06
5.40672e-08
2.33252e-06
-3.83117e-07
2.31584e-06
-2.31384e-06
-2.00419e-09
-6.07077e-09
-2.14559e-06
2.15166e-06
2.42596e-06
-1.7382e-06
-2.92249e-08
2.39874e-06
1.35873e-06
-3.75747e-06
2.37607e-06
-2.37607e-06
3.70243e-07
2.15872e-06
-8.38784e-07
-1.48645e-06
-1.89576e-06
2.28535e-06
-3.89593e-07
-2.50043e-07
-2.04525e-06
2.18973e-06
-2.1958e-06
-2.09613e-06
3.39957e-08
2.06213e-06
4.0269e-07
-2.12592e-06
1.72323e-06
-2.20141e-06
2.1781e-06
2.33069e-08
1.40799e-06
1.01797e-06
-6.85618e-08
-3.56868e-07
-1.32546e-06
-1.32198e-06
-5.11906e-07
-2.35064e-06
2.39863e-07
-2.17546e-06
1.97136e-06
4.13065e-07
-1.82715e-06
-2.05536e-06
1.91176e-07
-2.09736e-06
1.21666e-06
2.37987e-06
-1.93436e-06
-4.45516e-07
4.0566e-07
1.90898e-06
-1.67866e-06
-7.95741e-07
-2.32641e-06
2.32641e-06
2.32904e-06
-2.24034e-06
-8.86983e-08
1.33224e-07
-2.2048e-06
-1.8633e-06
2.1067e-06
-2.43403e-07
-7.36731e-07
3.40237e-07
2.169e-06
-2.17971e-06
1.07067e-08
2.28195e-06
2.43826e-08
2.30338e-06
2.56573e-08
3.47739e-06
-2.21913e-06
-5.97867e-08
-1.94734e-06
1.59874e-06
2.18465e-06
3.79922e-08
2.29697e-06
-2.28481e-06
-1.21591e-08
-2.03583e-08
-3.18821e-08
2.40919e-07
-1.97003e-06
1.72911e-06
-6.80571e-08
-3.01576e-06
7.21453e-07
1.6023e-07
-2.02353e-06
-2.1959e-06
2.16222e-06
3.36764e-08
2.18998e-06
-1.95816e-07
-1.02067e-06
-1.35989e-06
-3.07026e-06
2.27238e-07
-1.23297e-06
-3.65076e-07
1.05762e-08
2.25588e-06
-2.00923e-06
-2.1624e-06
-2.16565e-06
5.66347e-08
2.10901e-06
3.05634e-06
4.3444e-07
1.76313e-06
8.79934e-07
2.13283e-06
-9.49666e-07
2.22532e-06
-1.26382e-07
5.11507e-06
-3.75634e-06
-3.49854e-06
-1.12222e-06
-1.19921e-06
-2.86981e-08
2.37463e-06
-2.22498e-06
-1.49651e-07
2.25227e-06
5.11176e-08
2.60464e-07
-2.15622e-06
-1.59977e-06
1.84069e-06
2.18154e-06
1.92885e-08
1.70845e-06
7.56072e-07
2.28915e-06
8.54804e-08
2.28775e-06
-2.25505e-06
-3.26978e-08
-1.03255e-06
-1.45098e-06
-1.03314e-07
2.10551e-06
3.90272e-08
-2.42562e-06
1.89672e-06
-1.49403e-06
-3.25424e-08
4.741e-08
1.85305e-06
-2.01008e-06
1.57035e-07
3.39602e-07
1.94575e-06
3.10188e-06
-3.01599e-06
1.07996e-06
1.36431e-06
-2.18969e-06
2.16483e-06
2.48613e-08
-5.01268e-08
-1.27495e-06
7.00437e-07
5.74511e-07
-2.32783e-08
2.37814e-06
-2.37814e-06
2.69438e-06
-1.56415e-06
-1.13023e-06
-1.96467e-06
-3.34393e-07
1.65888e-06
7.85915e-07
2.27683e-06
1.23247e-08
-2.14559e-06
2.12866e-06
1.37523e-08
-2.14242e-06
1.74138e-06
2.42562e-06
-2.41031e-06
6.08799e-08
2.83135e-06
-2.5104e-06
2.1905e-06
-2.32852e-06
2.17805e-06
-4.93855e-08
1.96543e-06
-2.12823e-06
2.11737e-06
1.08629e-08
9.79858e-08
1.70894e-06
-1.80692e-06
-1.93433e-06
1.59872e-06
-1.44373e-07
2.02148e-06
2.77176e-07
-1.99234e-08
-1.87326e-06
-3.26361e-07
-2.80868e-06
1.77614e-06
4.83373e-09
-2.13462e-06
-2.27163e-06
-1.07781e-07
3.04008e-06
-1.63911e-06
2.17745e-08
-3.94038e-07
2.41812e-06
-2.02408e-06
-1.03274e-06
-2.42205e-07
2.11936e-06
-2.14167e-06
2.23133e-08
-2.1905e-06
2.17556e-06
9.43761e-07
1.34568e-06
-2.28944e-06
2.27519e-06
-4.22144e-07
1.87359e-07
2.02504e-06
2.23431e-06
2.20269e-07
2.43719e-07
2.96926e-07
-2.37988e-06
5.23511e-08
-1.88725e-06
2.14771e-06
-1.09409e-06
1.32133e-06
2.01691e-07
-1.98305e-06
1.78136e-06
-1.67655e-08
3.92783e-08
-1.97694e-06
-2.25215e-06
2.21041e-06
4.17457e-08
-2.15811e-06
2.23757e-07
1.41156e-06
1.28282e-06
-1.21437e-06
2.48876e-06
-1.27438e-06
2.49725e-06
-2.33099e-06
-1.66261e-07
6.34542e-08
1.53527e-06
-2.14289e-06
-2.27527e-08
2.17495e-06
3.10272e-09
1.07299e-06
-3.72551e-07
2.76821e-06
-2.48955e-06
1.97758e-06
3.07853e-07
1.24127e-07
-2.20789e-06
3.34624e-07
3.30405e-08
-1.92029e-06
2.46475e-06
-1.99337e-06
2.00913e-06
-1.22148e-07
-1.91318e-06
2.03533e-06
-2.1648e-06
2.25515e-06
-2.68301e-08
-3.27934e-06
2.63876e-07
-1.43543e-08
2.12355e-06
4.12823e-08
-2.00243e-06
-2.20094e-06
2.19212e-06
8.81748e-09
2.6384e-06
-1.53494e-06
-1.10346e-06
-1.84554e-06
-1.66371e-07
2.01191e-06
-4.76127e-09
-2.17241e-06
4.68382e-08
-2.36246e-07
2.32394e-06
-2.08769e-06
-2.13028e-06
2.14099e-06
-3.09347e-06
-4.50667e-07
-2.99085e-06
2.91558e-06
7.52619e-08
1.70455e-06
8.65752e-07
1.99538e-06
1.79934e-07
-2.17532e-06
2.12189e-06
-8.67786e-08
1.7085e-06
8.52633e-07
-1.51628e-06
4.83541e-07
-2.14688e-06
1.86311e-06
-2.12026e-06
-2.88082e-06
2.87044e-06
1.03822e-08
2.59908e-06
-2.08656e-06
2.12379e-06
-6.41454e-09
1.3093e-07
-1.98085e-06
1.84992e-06
-3.20222e-08
-2.8488e-06
2.5731e-06
-2.5731e-06
-1.17274e-06
2.20789e-06
-1.03515e-06
-2.12449e-06
2.12449e-06
2.17367e-06
-1.9212e-06
-2.52468e-07
2.01544e-06
4.8026e-07
2.26379e-06
-1.85813e-06
2.24023e-06
-2.51035e-08
-1.75074e-06
-2.80771e-07
2.03151e-06
-2.84591e-06
2.85575e-06
-9.83159e-09
2.63092e-06
-1.58433e-06
-1.04659e-06
3.83425e-07
1.88036e-06
-2.8757e-06
2.86123e-06
1.44761e-08
-8.6359e-10
-2.1155e-08
2.8377e-06
-2.81655e-06
-2.86503e-06
2.86503e-06
-3.40725e-08
2.15343e-06
3.07562e-06
-2.86639e-06
-2.0923e-07
-2.87758e-06
2.85642e-06
2.87484e-06
-2.8603e-06
-1.45335e-08
-2.09432e-06
-4.73473e-08
2.45084e-06
-3.29645e-08
2.85601e-06
-2.82305e-06
2.85687e-06
-2.86228e-06
5.41645e-09
-2.16063e-06
2.84188e-06
-4.17727e-09
-2.19861e-06
2.17914e-06
1.94688e-08
-2.84137e-06
2.85176e-06
-1.03908e-08
2.17649e-06
-2.11985e-06
-2.86996e-06
2.837e-06
2.20196e-06
-7.01128e-07
1.04782e-06
1.37029e-06
-1.5897e-06
-1.21899e-06
-2.86002e-06
2.86002e-06
-2.87314e-06
-4.43522e-09
2.65955e-06
-4.88272e-07
-2.17128e-06
-1.87189e-06
1.27184e-06
7.16733e-08
2.84651e-06
-2.85541e-06
8.89326e-09
2.09498e-06
-2.09414e-06
-8.36577e-10
2.9352e-06
-2.85883e-06
-7.63632e-08
2.8315e-06
1.50086e-08
2.82632e-06
2.96875e-08
-5.96236e-09
-2.11853e-06
-2.61764e-06
1.44103e-06
1.17661e-06
-2.11552e-06
2.12927e-06
2.8406e-06
-9.10113e-09
2.97865e-07
1.92745e-06
1.52784e-06
-5.84078e-07
-2.8659e-06
-4.05891e-09
2.33685e-06
1.38589e-06
-2.36212e-06
-3.61123e-07
-2.91822e-06
2.13413e-06
-2.14741e-06
1.32783e-08
-9.90936e-08
-2.89175e-06
2.22199e-06
-2.49306e-08
2.46863e-06
-1.68788e-06
-7.80751e-07
-2.13806e-06
2.845e-06
-2.845e-06
2.03811e-06
2.8561e-08
-2.06667e-06
2.1925e-06
-2.85101e-06
2.84723e-06
3.77866e-09
2.8306e-06
-2.8581e-06
2.75014e-08
1.79733e-06
-2.38257e-06
-7.6959e-09
-2.83091e-06
2.83861e-06
2.82436e-06
-2.83205e-06
-9.3795e-08
3.00938e-06
-2.25734e-06
2.4478e-06
-2.56259e-06
1.77831e-06
-4.50107e-08
2.91545e-06
2.44751e-07
1.26159e-06
2.70446e-08
2.63251e-06
-7.8486e-09
2.27772e-06
-2.26987e-06
-1.95916e-08
-2.85776e-06
-1.79405e-08
2.34809e-06
-2.36125e-07
-2.11197e-06
-2.8388e-06
2.8388e-06
1.66383e-06
-1.43159e-06
-2.86233e-06
2.85476e-06
7.56742e-09
2.18662e-06
-2.18662e-06
2.12729e-06
-3.23143e-08
2.84269e-06
-2.84726e-06
4.57696e-09
-2.74498e-06
7.50345e-07
1.87978e-09
-2.11182e-06
2.10994e-06
2.29008e-06
-1.91171e-08
2.84846e-06
2.63762e-08
1.72835e-06
2.94582e-07
-2.02293e-06
2.85734e-06
-1.54577e-08
2.22178e-06
-2.22178e-06
2.83922e-06
-2.82926e-06
-9.96763e-09
-2.17235e-06
2.15545e-06
1.69013e-08
2.86081e-06
-2.85218e-06
-8.62716e-09
-2.84358e-06
2.84358e-06
4.2591e-07
1.99229e-06
6.74105e-08
-2.0597e-06
-2.86256e-06
2.85505e-06
7.51288e-09
-1.07718e-08
-2.14454e-06
2.13208e-06
2.05521e-09
2.65994e-06
-5.0007e-07
-2.15987e-06
1.83842e-06
2.832e-06
-2.83985e-06
7.85713e-09
2.19012e-06
2.33707e-06
3.29325e-08
2.00518e-06
2.90405e-06
-5.55917e-08
2.82255e-06
9.45059e-09
2.07821e-06
-2.07821e-06
-1.09409e-06
2.87203e-06
-2.84937e-06
-8.73593e-09
2.84804e-06
-2.83736e-06
-1.06831e-08
5.61148e-08
-2.90225e-06
2.84613e-06
2.99092e-07
-2.87219e-06
-2.85737e-06
2.8524e-06
4.96936e-09
2.06308e-06
-2.06181e-06
-1.27478e-09
2.17367e-06
-1.9183e-06
1.9183e-06
2.82834e-06
-5.7951e-09
-2.12037e-06
-1.98085e-06
1.99538e-06
2.20133e-06
-2.32281e-08
-6.51094e-09
2.25627e-07
-2.80891e-06
2.84746e-06
-2.84849e-06
1.02075e-09
6.71412e-08
1.99594e-06
6.6199e-08
2.28189e-06
2.14279e-06
-1.54998e-08
-2.85114e-06
2.84772e-06
3.41685e-09
2.82591e-06
-2.83405e-06
8.13767e-09
-2.84835e-06
-1.39741e-08
2.84076e-06
-2.8332e-06
-7.56568e-09
2.14548e-06
4.11352e-08
2.84234e-06
1.24256e-08
-3.67226e-09
2.83614e-06
1.15831e-08
-4.43762e-10
-2.10199e-06
-2.87934e-06
3.0544e-08
-2.13087e-06
2.13087e-06
2.79395e-08
2.632e-06
-2.16547e-06
4.14732e-07
1.51244e-08
2.84174e-06
1.19054e-07
-2.05194e-06
1.93288e-06
2.01253e-08
2.8449e-06
2.7145e-06
-2.96019e-06
2.14474e-06
7.70369e-08
2.82436e-06
-2.16342e-08
2.01393e-06
-2.07125e-06
9.44081e-09
2.04176e-06
-3.13404e-07
-2.83143e-06
2.83143e-06
-2.84652e-06
-1.60392e-08
1.9212e-06
-1.99018e-06
6.89806e-08
-2.8449e-06
2.09576e-06
-2.09388e-06
2.84092e-06
1.41239e-08
-2.84216e-06
-2.53006e-06
1.76232e-06
-2.85453e-06
2.84973e-06
4.79907e-09
1.93853e-06
1.83367e-07
2.11182e-06
1.26774e-08
-2.82214e-06
2.84169e-06
-1.95487e-08
-2.14645e-06
2.12762e-06
1.88243e-08
-2.83116e-06
9.01996e-09
2.13579e-06
-3.71377e-09
1.16868e-07
-2.20648e-06
2.08961e-06
2.8306e-06
-2.84325e-06
1.2652e-08
2.30273e-06
-2.41051e-06
2.83026e-06
-2.82995e-06
-3.15802e-10
-1.80642e-06
1.80642e-06
-2.22681e-06
2.22681e-06
-2.82697e-06
-4.19024e-09
-1.32133e-06
1.56608e-06
-2.83517e-06
2.83098e-06
4.18818e-09
2.23794e-08
2.83765e-06
1.76777e-06
-1.56608e-06
-1.76777e-06
1.86576e-06
1.87458e-06
-2.15535e-06
2.59412e-06
-1.53537e-06
-1.05875e-06
-2.84525e-06
-1.21251e-08
-4.0867e-07
-1.86576e-06
2.27443e-06
2.84163e-06
1.07689e-08
-2.15369e-06
1.99363e-06
2.84992e-06
-2.84413e-06
-5.78991e-09
-2.83303e-06
-2.13436e-06
2.14615e-06
-6.79457e-08
-7.65421e-09
2.84826e-06
2.8361e-06
-2.10994e-06
-2.90384e-06
-1.70551e-06
2.17532e-06
-4.69808e-07
-2.82061e-06
-1.03018e-08
2.83261e-06
3.52315e-09
1.65163e-06
-1.6883e-06
3.66714e-08
3.28837e-09
1.99018e-06
-2.0705e-06
8.03202e-08
1.31279e-06
1.32561e-06
-2.84398e-06
-1.05488e-08
-2.15558e-06
2.82015e-06
-2.81776e-06
-2.38966e-09
2.84052e-06
9.21025e-09
-2.84884e-06
2.84575e-06
3.09417e-09
2.17876e-06
2.14548e-06
-2.82744e-06
2.82116e-06
6.27626e-09
2.84738e-06
-2.8461e-06
-1.2832e-09
-2.11851e-06
2.14474e-06
2.8261e-06
-2.8261e-06
1.13775e-08
2.84985e-06
-1.78419e-06
-3.81277e-07
2.83193e-06
-1.33454e-09
-3.62732e-07
1.93365e-06
-1.57092e-06
2.82473e-06
-2.82229e-06
-2.44122e-09
8.70059e-09
2.8363e-06
2.81956e-06
-2.82212e-06
2.55941e-09
-2.85265e-06
-2.84231e-06
-1.71304e-06
2.5023e-09
2.84473e-06
-3.11721e-09
-2.83505e-06
2.83817e-06
-2.82627e-06
2.82005e-06
6.21333e-09
-2.84387e-06
-4.97163e-09
-2.1525e-06
-2.0799e-06
8.64489e-09
2.84091e-06
4.83706e-09
-2.82369e-06
2.82249e-06
1.19643e-09
-2.82561e-06
1.07199e-08
2.81489e-06
2.84304e-06
6.88713e-09
-2.8342e-06
-9.93469e-09
-2.06848e-06
-9.72985e-09
2.84165e-06
-2.84338e-06
1.72721e-09
2.82515e-06
-2.82827e-06
-2.83062e-06
2.8267e-06
3.91701e-09
2.82354e-06
-2.82126e-06
-2.28556e-09
2.12914e-06
1.72432e-09
2.84256e-06
4.81902e-09
-2.83856e-06
-7.53903e-09
-2.84893e-06
2.14615e-06
-2.82508e-06
2.81941e-06
5.67144e-09
1.87539e-06
-1.99753e-06
-2.81711e-06
2.82772e-06
-1.06159e-08
2.8259e-06
-2.83014e-06
4.24556e-09
-7.03176e-09
-2.8411e-06
-2.77505e-09
-7.43033e-09
-2.50907e-06
1.7801e-06
-4.888e-09
2.82515e-06
-4.72883e-09
-3.06734e-09
-2.84352e-06
2.42353e-09
1.08938e-06
2.38794e-06
-3.47732e-06
-5.88359e-07
2.84163e-06
2.81253e-11
-2.8363e-06
5.31452e-09
2.83349e-06
-2.83795e-06
-5.42756e-09
-2.13624e-06
-2.84636e-06
2.84292e-09
1.0092e-08
2.8326e-06
-4.21235e-10
1.35622e-08
-2.79829e-06
2.78472e-06
2.84559e-06
-2.84415e-06
-1.4411e-09
-2.17428e-06
3.90089e-07
2.84012e-06
-2.83515e-06
-4.96691e-09
-2.84195e-06
-2.10775e-06
-1.11322e-07
2.82296e-06
-2.82072e-06
-2.24161e-09
1.49238e-08
-2.80094e-06
2.78601e-06
-2.84487e-06
2.83955e-06
5.32134e-09
-2.15127e-06
2.1331e-06
1.81673e-08
2.4509e-09
-2.84482e-06
-1.544e-09
-2.16491e-06
4.49216e-07
1.71569e-06
-2.84114e-06
-3.73457e-09
2.84462e-06
9.70139e-10
-2.83995e-06
-4.20443e-09
-1.14482e-08
-2.84502e-06
2.03892e-10
-2.04644e-06
-2.35705e-07
2.28215e-06
1.63623e-06
1.20022e-08
-2.83349e-06
2.13409e-06
-6.4674e-09
-2.82284e-06
2.82284e-06
-5.47215e-09
2.84327e-06
1.3499e-09
-2.26278e-09
4.47446e-09
4.61073e-09
2.84434e-06
-1.06848e-09
1.67658e-09
2.8436e-06
-2.84362e-06
2.09044e-11
2.05236e-06
-2.05236e-06
-2.83775e-06
2.83161e-06
6.13813e-09
2.8276e-06
-2.82471e-06
-2.88563e-09
-4.02941e-09
2.84257e-06
1.77166e-09
2.8427e-06
9.05956e-10
-1.05121e-09
2.84287e-06
2.84022e-06
-2.84177e-06
1.54797e-09
-2.86764e-06
-2.83113e-06
-6.62218e-09
2.18908e-06
-2.68573e-08
2.83769e-06
2.53698e-09
2.36942e-08
2.83984e-06
-2.8367e-06
-3.13615e-09
-2.02876e-06
2.02876e-06
1.60767e-08
2.8275e-06
-2.82234e-06
2.8269e-06
-4.56162e-09
2.83923e-06
6.03169e-10
1.84852e-08
2.12431e-06
2.83588e-06
-2.83477e-06
-1.11033e-09
-2.81344e-06
-8.89055e-09
2.82801e-06
-2.83032e-06
2.30866e-09
2.83403e-06
1.85155e-09
2.83924e-06
3.45225e-09
-2.80808e-08
-2.80697e-06
-4.09933e-09
-2.50294e-07
-1.90593e-06
2.82344e-06
-2.82618e-06
2.74349e-09
8.41554e-08
1.96821e-06
2.83553e-06
-2.83284e-06
-2.69394e-09
-2.52944e-09
-4.92617e-08
-2.35555e-06
2.40481e-06
-2.05376e-06
2.07737e-06
-2.36099e-08
-2.81013e-06
2.81105e-06
-9.22672e-10
2.83222e-06
3.30624e-09
-2.82378e-06
-1.76364e-06
2.85302e-06
2.83337e-06
-2.82931e-06
-4.06242e-09
-2.83608e-06
2.83615e-06
-6.59125e-11
2.82806e-06
-2.82551e-06
-2.55194e-09
-2.75644e-07
-2.42584e-06
2.70148e-06
2.83043e-06
2.94691e-09
-2.81235e-06
2.21611e-09
2.83379e-06
-2.83017e-06
-3.62057e-09
2.12914e-06
-2.17995e-06
2.17995e-06
2.83273e-06
-2.82735e-06
-5.37962e-09
-5.5235e-09
2.83387e-06
-4.47187e-09
-2.13198e-06
2.82868e-06
4.05201e-09
-2.83581e-06
-5.33111e-09
-2.80796e-06
2.80948e-06
-1.5208e-09
2.83613e-06
1.55726e-09
4.83371e-08
2.80741e-06
-5.69993e-10
2.83356e-06
7.20651e-09
2.12317e-06
1.09255e-08
3.41744e-10
-2.8108e-06
2.8363e-09
2.16188e-07
7.94568e-09
9.11632e-08
2.82544e-06
-2.82808e-06
2.64025e-09
-2.80498e-06
2.80827e-06
-3.29423e-09
5.12603e-08
-2.12654e-06
2.07528e-06
3.79986e-07
-2.21406e-06
1.83408e-06
8.07626e-07
2.00861e-06
-2.00861e-06
2.82341e-06
-2.82341e-06
-2.31814e-06
1.29083e-09
-2.82873e-06
2.16678e-06
2.83282e-06
6.41062e-09
-5.33086e-07
-9.9374e-07
1.52683e-06
-2.80913e-06
4.15312e-09
-2.81053e-06
-9.17174e-08
1.20106e-06
-1.98104e-06
7.79986e-07
-1.94534e-09
1.93226e-08
2.8084e-06
5.97918e-09
2.12981e-06
-2.83695e-06
5.99256e-09
2.82544e-06
1.80243e-06
-2.19944e-06
3.9701e-07
1.83367e-06
-6.3261e-07
-3.55228e-09
-2.82271e-06
2.83743e-06
-2.81811e-06
-2.82917e-06
-2.80127e-06
2.7986e-06
2.67533e-09
6.60961e-10
2.83032e-06
2.82046e-06
2.95119e-09
2.57728e-06
-1.7114e-06
-8.65886e-07
-8.94577e-09
2.15369e-06
2.82951e-06
4.51585e-09
2.57677e-06
-2.85242e-06
1.92991e-08
2.8083e-06
-3.34971e-09
-2.82173e-06
-2.80462e-06
3.34166e-09
-2.05922e-06
5.4545e-09
2.16466e-06
-1.73588e-06
-4.28778e-07
2.81539e-06
-2.81562e-06
2.23326e-10
-3.32508e-09
8.12612e-07
-1.14204e-06
-1.06907e-06
2.21111e-06
2.82072e-06
-2.82504e-06
4.31897e-09
2.24188e-06
-2.21332e-06
-7.01826e-09
2.1525e-06
-1.84805e-06
1.31497e-06
2.81784e-06
-2.82065e-06
2.81197e-09
2.83412e-06
-2.81482e-06
-2.1236e-06
7.12389e-08
-2.13152e-06
2.12831e-06
3.21785e-09
2.0705e-06
-2.11976e-06
4.5321e-08
2.80644e-06
-2.1528e-06
2.08466e-06
-7.5949e-08
2.82964e-06
-2.82621e-06
-3.4339e-09
2.20254e-06
-2.10407e-06
-9.84691e-08
2.82046e-06
-1.71163e-09
-2.82198e-06
-2.08659e-06
6.69181e-09
2.61897e-07
1.60235e-06
-1.86425e-06
-2.79769e-06
2.79464e-06
3.05468e-09
2.81593e-06
9.96898e-09
-1.78277e-06
-3.72575e-07
2.06778e-08
2.80738e-06
2.82484e-06
-2.83151e-06
6.67121e-09
2.82145e-06
-5.1918e-09
-2.81257e-06
-2.2008e-06
-3.71847e-07
2.82631e-06
5.91059e-09
3.0064e-06
-6.18458e-07
-1.73423e-08
2.82365e-06
-2.80631e-06
2.82223e-06
2.61655e-09
-2.80175e-06
4.05338e-09
-2.80958e-06
-2.03623e-08
-5.3486e-09
2.7858e-06
-2.78045e-06
3.68831e-09
2.82241e-06
2.8345e-06
-2.81382e-06
-2.82544e-06
-9.42491e-09
2.15558e-06
-2.99828e-09
2.13694e-06
-1.08717e-07
-2.02822e-06
2.90479e-08
2.10789e-06
-2.78982e-06
2.78447e-06
-2.82497e-06
-6.15473e-09
1.79332e-06
3.71346e-07
-1.04838e-08
2.18479e-06
-2.17431e-06
-1.81001e-06
-1.51381e-06
1.77571e-06
-2.36002e-06
2.93256e-07
2.06676e-06
2.82118e-06
2.17444e-09
-2.82446e-06
2.82772e-08
2.80916e-06
2.81699e-06
-2.81741e-06
4.28569e-10
2.82315e-06
-2.81471e-06
-8.4314e-09
-2.82693e-06
1.92634e-09
-4.07914e-09
-2.13362e-06
2.1377e-06
4.34305e-10
2.82627e-06
-1.96013e-06
5.74366e-07
-2.82331e-06
2.82169e-06
1.62823e-09
-2.79376e-06
2.7904e-06
3.36047e-09
2.77527e-08
2.30473e-06
-2.23732e-06
1.69305e-06
-4.14224e-08
-1.48546e-08
2.82524e-06
-2.81038e-06
-2.51798e-06
1.37594e-06
2.82019e-06
2.49876e-09
-2.82376e-06
2.82309e-06
7.33902e-09
-2.63764e-06
2.57428e-08
2.61189e-06
4.48003e-09
-2.79824e-06
2.81758e-06
-2.81462e-06
-2.95799e-09
-8.99406e-08
2.8344e-06
-2.74446e-06
-4.25993e-09
-5.80565e-07
2.65284e-06
-2.07227e-06
-2.1236e-06
-2.34307e-06
2.81935e-06
-1.50749e-09
2.49667e-08
2.80915e-06
2.74994e-06
2.84633e-06
-2.8447e-06
-1.62616e-09
9.28789e-10
-2.1388e-06
2.13787e-06
-2.82101e-06
2.81909e-06
1.92451e-09
5.73544e-08
-2.12583e-06
2.06848e-06
2.82472e-06
-2.82359e-06
-1.13099e-09
-2.18712e-06
2.17664e-06
2.81643e-06
-2.81425e-06
-2.18225e-09
7.92642e-09
2.81522e-06
-3.33784e-08
2.83138e-06
-2.82272e-06
2.6793e-08
-2.08104e-06
2.82268e-06
-2.82217e-06
-5.08249e-10
2.82125e-06
1.64429e-09
-2.82236e-06
2.80678e-06
5.9169e-09
-2.81269e-06
6.81009e-10
2.82302e-06
-2.81509e-06
-6.92048e-09
-2.13781e-06
2.14473e-06
1.51679e-06
-2.23079e-06
7.13995e-07
-4.71236e-07
-2.1664e-06
-2.07561e-06
-4.64252e-07
-1.81946e-06
-2.81957e-06
1.63996e-08
2.80317e-06
-2.15067e-06
2.13781e-06
1.28677e-08
-6.54024e-07
-1.72855e-06
-2.81801e-06
2.51601e-06
-2.8122e-06
2.8172e-06
-4.99271e-09
-2.34933e-06
2.3269e-07
2.11664e-06
2.24699e-06
-1.72599e-06
-5.20994e-07
-2.82215e-06
5.71254e-09
2.81644e-06
2.1416e-06
-2.11448e-06
5.95391e-09
2.81162e-06
-2.82241e-06
2.89009e-09
2.81995e-06
2.81945e-06
9.2287e-09
-4.78816e-10
-2.82164e-06
-9.27692e-09
-2.81404e-06
-2.81506e-06
2.13936e-06
-2.11362e-06
-1.20671e-08
6.0342e-07
1.86521e-06
-1.92684e-06
1.92684e-06
2.46526e-08
2.80985e-06
-3.19913e-06
-2.60297e-06
2.6039e-06
2.82334e-06
2.13752e-06
-2.12139e-06
-2.81909e-06
2.80981e-06
-2.38364e-06
2.441e-06
2.81706e-06
-2.81459e-06
-2.46843e-09
3.46054e-09
2.81998e-06
-2.85296e-06
2.14643e-06
-2.15335e-06
-2.81822e-06
4.77266e-09
1.06253e-06
2.82515e-06
-2.82172e-06
-3.43318e-09
-2.82329e-06
2.81721e-06
-2.81486e-06
-2.34927e-09
-2.81676e-06
-2.80921e-09
2.81067e-06
-2.80204e-06
-2.15457e-06
2.59107e-06
2.81476e-06
-2.81386e-06
-9.00822e-10
-4.9865e-09
2.81176e-06
-2.15067e-06
1.86458e-06
-2.02012e-06
1.5554e-07
-3.47087e-06
3.47087e-06
2.82201e-06
2.82255e-06
-7.16555e-09
4.78152e-09
-2.82157e-06
2.83159e-06
-1.00161e-08
2.81635e-06
-2.81398e-06
-2.36815e-09
-2.33685e-06
2.22553e-06
8.80355e-09
2.81485e-06
-2.82208e-06
7.66784e-09
2.81441e-06
-2.81374e-06
2.81982e-06
-2.81605e-06
-2.1612e-06
-2.81975e-06
9.48737e-09
2.81026e-06
-2.16397e-06
-6.15329e-09
2.1119e-06
-2.12744e-06
1.55356e-08
2.81265e-06
-2.81502e-06
2.36955e-09
5.26862e-08
-2.81971e-06
2.81501e-06
4.70473e-09
2.81825e-06
-2.06672e-06
-2.05254e-06
-3.4045e-08
2.82156e-06
-2.82156e-06
-1.43107e-08
2.14346e-06
-2.81995e-06
2.81582e-06
-2.81346e-06
-2.36525e-09
2.82105e-06
-1.58037e-08
-2.8174e-06
-2.09805e-06
-2.57497e-07
-2.15389e-06
1.68462e-06
-1.88199e-06
1.9737e-07
-4.20957e-07
-1.82078e-06
2.24174e-06
2.81058e-06
-2.80311e-06
1.82603e-06
-2.12654e-06
-6.13768e-09
-2.81601e-06
2.81735e-06
-2.81501e-06
-2.33969e-09
2.16463e-06
-2.17567e-06
-5.94275e-07
-3.93989e-07
9.88264e-07
-2.24475e-06
2.2635e-06
2.1725e-06
-2.14346e-06
-8.4529e-09
-2.10683e-06
2.11529e-06
-1.08625e-08
-2.09038e-06
2.10125e-06
7.07832e-09
-2.19285e-06
2.18578e-06
2.01026e-08
-2.20134e-06
2.18124e-06
1.03387e-08
-2.1561e-06
2.14576e-06
-3.78757e-09
-2.11075e-06
2.11454e-06
-3.86471e-09
-2.10911e-06
2.11297e-06
1.26806e-06
-8.54571e-07
-4.13493e-07
1.87176e-06
1.38976e-08
2.81134e-06
2.06179e-06
-2.07515e-06
1.33656e-08
6.62232e-09
-2.81622e-06
2.8096e-06
2.82357e-06
-2.82357e-06
2.78617e-06
-4.3254e-10
-2.78573e-06
-9.53057e-09
-2.80956e-06
2.81561e-06
-2.81315e-06
-2.46024e-09
-1.75018e-06
-2.29768e-06
-5.16465e-08
1.84558e-06
3.56958e-07
2.82136e-06
-2.81745e-06
-3.90627e-09
-2.14755e-06
2.233e-06
9.40764e-09
2.81361e-06
-1.54882e-06
-9.69153e-07
2.1649e-08
2.02061e-06
-2.04226e-06
-1.44303e-06
-2.45265e-07
-4.84154e-07
-2.98871e-07
7.83026e-07
2.11969e-06
2.12e-06
2.2123e-06
2.2126e-06
2.1972e-06
2.16789e-06
-9.97133e-09
-2.12444e-06
2.13441e-06
2.12624e-06
-3.07659e-09
-8.36011e-07
2.81653e-06
-2.80991e-06
-6.99807e-08
2.26601e-06
-2.8248e-06
-1.92791e-06
2.38594e-06
2.78276e-06
1.98325e-09
-2.78474e-06
2.82731e-06
-5.7485e-09
-2.82119e-06
1.02023e-08
2.81099e-06
-2.12733e-06
-2.13362e-06
2.13303e-06
-2.143e-06
-1.94116e-06
2.34303e-06
-4.01873e-07
-5.06587e-09
-2.81468e-06
1.47196e-06
-1.8347e-06
4.64692e-09
-2.81927e-06
-2.81591e-06
-7.48789e-07
-1.09927e-06
-2.81088e-06
-5.33716e-09
2.15832e-06
6.73789e-07
1.6442e-06
2.81287e-06
-2.81069e-06
-2.17419e-09
2.14313e-06
-1.41841e-06
-7.2472e-07
-1.02119e-06
5.37035e-07
-1.18423e-06
2.56017e-06
-1.02602e-06
2.13236e-06
-1.10634e-06
9.94092e-10
2.81972e-06
-2.80038e-06
2.81483e-06
-2.81647e-06
1.64054e-09
-1.59395e-06
6.79165e-07
9.14784e-07
-9.3532e-09
-2.12388e-06
2.13323e-06
2.94787e-06
-1.3036e-06
-1.64427e-06
2.00989e-09
2.78416e-06
-6.13034e-07
-9.80916e-07
-2.05716e-06
2.07881e-06
1.75589e-06
1.15862e-07
-2.04772e-06
-4.27921e-09
-2.12645e-06
2.13073e-06
2.1956e-06
-2.12846e-06
-1.30679e-06
-4.96378e-07
1.80317e-06
-2.81058e-06
2.81139e-06
-8.14034e-10
-2.07722e-06
2.10401e-06
2.8136e-06
-2.81544e-06
-1.88119e-06
-4.56528e-08
-2.83466e-06
2.82398e-06
-1.46761e-06
2.11621e-09
2.81508e-06
2.45452e-06
-1.35648e-06
-1.09804e-06
2.07641e-06
-3.91792e-07
2.32204e-06
-3.01432e-07
2.12989e-06
-2.13924e-06
2.80985e-06
-2.80992e-06
6.98369e-11
2.13158e-06
-2.13586e-06
2.58291e-09
-2.80835e-06
2.80577e-06
-1.18429e-06
-2.83315e-07
6.94442e-09
-2.16151e-06
-2.81634e-06