/*--------------------------------*- C++ -*----------------------------------*\
  =========                 |
  \\      /  F ield         | OpenFOAM: The Open Source CFD Toolbox
   \\    /   O peration     | Website:  https://openfoam.org
    \\  /    A nd           | Version:  12
     \\/     M anipulation  |
\*---------------------------------------------------------------------------*/
FoamFile
{
    format      ascii;
    class       surfaceScalarField;
    location    "0.03";
    object      phi;
}
// * * * * * * * * * * * * * * * * * * * * * * * * * * * * * * * * * * * * * //

dimensions      [0 3 -1 0 0 0 0];

internalField   nonuniform List<scalar> 
6438
(
-4.97489e-09
6.08604e-07
-6.03629e-07
-5.38868e-09
7.06838e-07
-7.01449e-07
-6.60783e-07
-1.11096e-07
7.71879e-07
6.25972e-07
-6.87436e-07
6.14643e-08
9.66392e-07
-7.54264e-07
-2.12128e-07
2.24376e-07
7.42016e-07
-7.46234e-07
8.54513e-08
-6.53239e-07
6.4785e-07
7.04261e-07
-8.43036e-07
1.38775e-07
6.5544e-07
-7.66742e-07
1.11302e-07
-6.34678e-07
7.69159e-07
-1.34481e-07
1.53712e-07
-6.97941e-07
5.44229e-07
-7.80105e-07
1.45427e-07
6.01434e-07
2.77933e-07
-8.79367e-07
5.66222e-07
-5.71197e-07
-3.06393e-08
6.61751e-07
-6.31112e-07
-8.35674e-07
8.09109e-07
2.65647e-08
-6.32612e-07
7.66297e-07
-1.33685e-07
-7.78438e-07
1.45826e-07
2.48401e-07
5.27652e-07
-7.76052e-07
-1.81978e-07
-1.1875e-07
3.00728e-07
-3.92138e-08
6.95937e-07
-6.56723e-07
-6.42318e-07
-1.05548e-07
7.47866e-07
-7.8579e-07
3.46148e-07
4.39642e-07
-6.85552e-07
6.46338e-07
-6.08207e-07
7.41432e-07
-1.33225e-07
-7.3834e-07
9.60222e-08
7.05216e-07
-5.51504e-07
-6.39358e-07
-1.16133e-07
7.55492e-07
-7.69569e-07
1.61362e-07
5.95324e-07
-7.42351e-07
1.47027e-07
3.0191e-09
-7.26274e-07
7.23255e-07
7.08898e-07
-7.11895e-07
2.99744e-09
-7.02788e-07
1.1943e-07
5.83358e-07
-9.527e-07
1.53806e-07
7.98894e-07
6.6836e-07
-6.65341e-07
6.72292e-07
-4.63196e-08
4.37562e-07
6.11623e-07
-1.04918e-06
-2.11992e-07
8.13426e-07
-6.25338e-07
6.88236e-07
-6.28982e-08
-7.28523e-07
7.21312e-07
7.21094e-09
-3.03439e-07
5.5184e-07
6.50388e-07
5.05212e-09
-7.81256e-07
7.65596e-07
1.56595e-08
7.01935e-07
-1.06611e-07
-5.16924e-07
4.86285e-07
-9.07479e-07
1.53215e-07
6.88092e-07
6.65783e-08
-7.5467e-07
-5.39205e-07
-1.63582e-07
-9.76977e-08
-6.45451e-07
7.33181e-07
-8.773e-08
-4.84423e-07
6.94409e-07
-2.09986e-07
6.96865e-07
-6.96865e-07
2.17511e-07
5.29964e-07
6.94181e-08
-5.99383e-07
3.09297e-07
1.48936e-07
-4.58233e-07
5.90247e-07
1.19805e-07
-7.10052e-07
5.70488e-07
-2.2434e-07
-3.30519e-07
-5.7696e-07
-6.11174e-09
6.13825e-07
-6.07713e-07
-7.58653e-07
7.58653e-07
-7.84063e-07
7.91019e-07
-6.95625e-09
3.14261e-08
5.84968e-07
-6.16394e-07
2.10539e-09
-7.16557e-07
7.14451e-07
6.64599e-07
-6.62493e-07
-7.24033e-07
8.46743e-08
-7.25933e-07
-5.53225e-08
-6.21354e-07
6.83017e-07
-6.16635e-08
6.91925e-08
5.97604e-07
-6.66796e-07
-7.33725e-07
7.05851e-07
2.78747e-08
7.1558e-07
-7.1558e-07
6.66142e-07
3.81191e-08
-4.36453e-07
-3.30289e-07
6.21618e-07
1.32842e-07
-7.5446e-07
-6.11352e-07
-1.17172e-07
5.42688e-07
4.20609e-07
-9.63297e-07
-8.40485e-07
5.37045e-07
-5.3646e-07
-3.04025e-07
7.34304e-07
-1.12686e-07
4.41158e-07
-1.31861e-07
5.99897e-07
6.60392e-08
-6.65936e-07
-7.39069e-07
-4.49941e-08
-1.07694e-07
-1.80387e-07
-5.78266e-07
8.01577e-07
-8.01577e-07
-5.3092e-07
-2.02805e-07
-4.95801e-08
-9.0312e-07
-6.912e-07
6.89271e-07
1.92938e-09
2.48874e-08
-7.02092e-07
6.77204e-07
-7.70622e-08
6.76959e-07
6.9207e-07
1.68283e-08
-7.23208e-07
-1.12466e-07
-7.29864e-07
7.47228e-07
-1.73635e-08
7.62766e-07
-4.26345e-07
-3.36422e-07
6.85222e-07
-6.60335e-07
1.46504e-08
7.68736e-07
-3.90833e-07
-3.77903e-07
4.35527e-07
3.27239e-07
7.04965e-07
-7.04965e-07
-5.40635e-07
7.74311e-07
-2.33676e-07
-6.78823e-07
3.33714e-08
-9.31052e-08
-5.49111e-07
6.42216e-07
-6.36576e-07
2.52242e-08
-6.82437e-07
1.41802e-07
5.8614e-07
1.27531e-07
-7.13671e-07
-4.54216e-08
6.31561e-07
-6.1488e-07
7.10099e-07
-9.5219e-08
-6.50603e-07
2.52652e-08
4.51948e-07
3.16788e-07
6.78893e-07
-1.34664e-07
2.89463e-08
6.67919e-07
-5.86851e-07
-4.97252e-08
6.12242e-07
1.3249e-07
-7.44732e-07
-3.38695e-07
-2.93604e-07
6.32299e-07
4.46291e-07
-5.85765e-08
-3.87714e-07
-7.26274e-07
1.48606e-07
7.24429e-07
-8.73035e-07
-3.38059e-07
1.56081e-07
7.25244e-07
1.61877e-08
7.89154e-07
-4.09785e-07
-3.79368e-07
2.66832e-07
5.22322e-07
7.28748e-07
-1.16505e-07
8.9615e-07
-4.58588e-07
-6.63013e-07
3.01785e-09
6.59996e-07
-9.49958e-07
9.52507e-08
8.54708e-07
-1.12671e-08
-6.60373e-07
6.7164e-07
7.24424e-07
4.11722e-08
-5.59756e-07
5.53644e-07
-6.67854e-07
6.81067e-07
-1.32125e-08
6.77116e-07
-6.88383e-07
6.98712e-07
-6.98712e-07
6.85976e-07
2.08624e-08
6.88608e-07
-1.58643e-07
6.79221e-07
-6.47795e-07
-5.97807e-07
5.04702e-07
6.55494e-09
6.59185e-07
-6.6574e-07
7.77089e-07
-5.41759e-07
-2.3533e-07
-7.16557e-07
-1.06939e-08
8.31688e-09
-6.61556e-07
-6.60468e-07
3.91144e-08
7.05965e-09
6.61301e-07
6.40077e-07
-5.70885e-07
-6.5977e-07
4.489e-08
6.6879e-07
-1.84017e-08
-2.43103e-08
5.82652e-07
-5.58342e-07
4.61228e-07
3.15861e-07
-6.8639e-07
1.48624e-07
5.37767e-07
6.97133e-07
-2.72422e-09
-9.25182e-07
8.30756e-08
8.42106e-07
-9.64346e-09
-6.56985e-07
6.66628e-07
4.35902e-07
1.03885e-08
4.19658e-08
6.55168e-07
6.49802e-07
5.54146e-08
6.73302e-07
-6.82945e-07
-7.00186e-07
-2.30213e-08
7.16849e-07
-7.71857e-07
5.5008e-08
-6.38711e-07
-2.43028e-08
-7.78112e-07
3.38003e-07
4.40109e-07
-6.89509e-10
6.72178e-07
2.37584e-08
-6.33883e-07
7.3659e-07
-1.02706e-07
-6.9462e-07
6.00329e-07
9.4291e-08
-9.45697e-08
2.43415e-07
-1.48846e-07
-2.1842e-07
-5.51149e-07
-7.02092e-07
-5.87818e-09
6.70477e-07
2.07976e-07
5.66335e-07
-1.15923e-08
-6.82048e-07
-3.50354e-09
-1.46447e-08
-7.4531e-07
6.29144e-07
1.16166e-07
-4.38885e-08
5.56121e-07
1.10021e-07
1.0899e-06
-4.78282e-07
-2.29601e-07
-5.48838e-07
6.82969e-07
9.10083e-09
-5.84185e-07
2.4549e-07
-2.65481e-07
-4.15373e-07
6.80854e-07
-2.35005e-07
-5.451e-07
-3.80671e-07
9.23359e-07
-7.05502e-07
2.3454e-08
-6.66295e-07
6.6892e-07
-2.62519e-09
-5.47684e-07
5.23374e-07
-8.14913e-09
-6.53026e-07
6.61175e-07
-7.18037e-07
1.25348e-08
5.98065e-07
-7.11232e-07
1.13167e-07
6.67458e-07
-6.75607e-07
5.94729e-07
-2.24456e-07
-3.70273e-07
-9.00925e-07
3.22424e-07
5.78501e-07
6.10053e-07
5.87369e-08
5.02941e-07
3.06168e-07
1.47142e-07
6.54435e-07
-1.77075e-07
-6.24502e-07
-7.27328e-07
7.2079e-07
6.53812e-09
-7.25321e-07
-2.00787e-09
-7.219e-07
-3.42028e-09
2.75336e-09
1.88111e-07
-1.05041e-06
8.62296e-07
-7.77866e-07
9.26472e-07
6.14598e-07
-6.08043e-07
6.57628e-07
2.75939e-08
5.35464e-08
5.41183e-07
-6.60373e-07
-5.98167e-07
5.95585e-07
7.39819e-08
-6.69567e-07
-3.37955e-09
-1.43507e-07
1.04769e-06
-9.04179e-07
9.9349e-07
-7.15556e-07
-3.02032e-07
4.50969e-07
-1.92359e-07
-5.85753e-07
-5.18532e-07
-3.82393e-07
-6.59417e-07
-4.07697e-08
-6.65107e-07
6.65049e-07
5.84372e-11
-1.04638e-07
6.23247e-07
-5.1861e-07
-7.14779e-07
7.19529e-07
-4.75039e-09
-7.07138e-07
-7.6404e-09
-9.08126e-07
5.80035e-08
8.50122e-07
-6.33113e-07
-4.10783e-08
6.74191e-07
7.1243e-07
7.09886e-09
-1.26429e-07
-7.76205e-07
2.85858e-07
4.90347e-07
4.32383e-09
-4.11282e-07
-3.64924e-07
-9.46999e-09
-7.36063e-09
-6.48931e-07
6.56292e-07
-6.66317e-07
3.32039e-08
6.01973e-07
8.09956e-08
6.93421e-07
-6.64475e-07
6.60645e-07
-6.68006e-07
6.58086e-07
1.90296e-08
3.237e-07
6.69789e-07
6.76987e-07
-1.20866e-07
-5.39448e-08
-8.96013e-07
-3.89249e-08
5.4261e-07
-5.03685e-07
-7.03923e-07
-3.21553e-09
-7.0377e-07
-1.52814e-10
7.09191e-07
-7.03891e-07
-5.29945e-09
7.01794e-07
7.3964e-09
-6.56985e-07
1.6126e-07
-2.20399e-07
5.91388e-08
-7.92894e-07
4.64906e-07
3.27988e-07
3.55304e-07
-7.12327e-07
3.57023e-07
-6.21313e-07
-5.75095e-08
-6.62882e-07
6.59644e-07
3.23792e-09
-6.8836e-07
6.63348e-07
2.50119e-08
-5.48962e-08
7.04561e-07
-6.49665e-07
-6.83764e-07
1.74473e-08
-7.59385e-07
9.47496e-07
-6.98297e-08
-6.16561e-07
-7.13842e-07
6.58946e-07
-5.59517e-07
-5.10888e-08
6.10606e-07
-5.20612e-07
6.97469e-07
4.32508e-09
-4.75378e-07
-1.2735e-07
1.41459e-07
-1.41088e-08
-6.30065e-09
2.59516e-08
-9.05353e-07
8.79401e-07
-5.02366e-07
-2.43868e-07
-7.06241e-07
6.9245e-07
1.37909e-08
-6.95403e-07
-1.08379e-08
-2.49273e-07
1.54703e-07
6.56893e-07
1.64085e-08
6.97006e-07
-1.12037e-07
6.95209e-07
-6.94859e-07
-3.49875e-10
-1.81224e-09
-6.43794e-07
6.45606e-07
7.27725e-07
-5.19749e-07
-8.68278e-09
7.18908e-07
4.0867e-07
-1.12758e-06
7.11397e-07
-7.11397e-07
1.11893e-07
6.4676e-07
-2.51071e-07
-4.45795e-07
-5.68114e-07
6.84741e-07
-1.16627e-07
-7.38463e-08
-6.14513e-07
6.57152e-07
-6.58964e-07
-6.27712e-07
9.44587e-09
6.18266e-07
1.21273e-07
-6.3804e-07
5.16767e-07
-6.60842e-07
6.53704e-07
7.13782e-09
4.23455e-07
3.0427e-07
-2.03093e-08
-1.07041e-07
-3.97108e-07
-3.95786e-07
-1.54938e-07
-7.05028e-07
7.11445e-08
-6.53026e-07
5.9139e-07
1.25459e-07
-5.47481e-07
-6.16455e-07
5.69387e-08
-6.29377e-07
3.63896e-07
7.14536e-07
-5.80627e-07
-1.33908e-07
1.21307e-07
5.72115e-07
-5.00484e-07
-2.37856e-07
-6.97247e-07
6.97247e-07
6.9882e-07
-6.72229e-07
-2.65909e-08
3.9611e-08
-6.60924e-07
-5.57877e-07
6.30451e-07
-7.25738e-08
-2.19963e-07
1.01213e-07
6.50623e-07
-6.53859e-07
3.23674e-09
6.85158e-07
7.29214e-09
6.91209e-07
7.61067e-09
1.04261e-06
-6.65631e-07
-1.81336e-08
-5.83716e-07
4.79078e-07
6.55757e-07
1.1701e-08
6.89235e-07
-6.85835e-07
-3.40041e-09
-6.16722e-09
-9.70106e-09
7.25357e-08
-5.90803e-07
5.18268e-07
-1.98323e-08
-9.0535e-07
2.16702e-07
4.81516e-08
-6.06028e-07
-6.58979e-07
6.4876e-07
1.02191e-08
6.56484e-07
-5.84186e-08
-3.04544e-07
-4.07351e-07
-9.21373e-07
6.81688e-08
-3.70201e-07
-1.09443e-07
2.73898e-09
6.76693e-07
-6.02711e-07
-6.48931e-07
-6.49852e-07
1.71482e-08
6.32703e-07
9.16663e-07
1.31023e-07
5.28029e-07
2.6299e-07
6.39833e-07
-2.84529e-07
6.66927e-07
-3.77832e-08
1.53678e-06
-1.12811e-06
-1.05041e-06
-3.37649e-07
-3.56971e-07
-8.66617e-09
7.1248e-07
-6.67529e-07
-4.49504e-08
6.75797e-07
1.54122e-08
7.83848e-08
-6.46499e-07
-4.78968e-07
5.51504e-07
6.54652e-07
5.99301e-09
5.08293e-07
2.26011e-07
6.86912e-07
2.55674e-08
6.86432e-07
-6.76677e-07
-9.7553e-09
-3.10342e-07
-4.32009e-07
-3.08095e-08
6.31138e-07
1.15076e-08
-7.27087e-07
5.6891e-07
-4.47636e-07
-1.00377e-08
1.4203e-08
5.55536e-07
-6.03368e-07
4.78323e-08
1.02799e-07
5.81942e-07
9.29473e-07
-9.03522e-07
3.24632e-07
4.08549e-07
-6.56833e-07
6.49927e-07
6.90591e-09
-1.50079e-08
-3.82841e-07
2.1056e-07
1.72281e-07
-7.02089e-09
7.12437e-07
-7.12437e-07
8.07219e-07
-4.69052e-07
-3.38167e-07
-5.86645e-07
-1.00791e-07
4.93692e-07
2.35055e-07
6.83125e-07
3.78686e-09
-6.43794e-07
6.38646e-07
4.19648e-09
-6.42843e-07
5.22177e-07
7.27087e-07
-7.23255e-07
1.829e-08
8.49493e-07
-7.54242e-07
6.56075e-07
-6.95209e-07
6.53555e-07
-1.4909e-08
5.88963e-07
-6.38747e-07
6.35706e-07
3.04116e-09
2.90332e-08
5.12434e-07
-5.41467e-07
-5.79637e-07
4.79137e-07
-4.32352e-08
6.0511e-07
8.31257e-08
-5.98886e-09
-5.61857e-07
-9.79133e-08
-8.43474e-07
5.33132e-07
2.05295e-09
-6.40763e-07
-6.81591e-07
-3.22508e-08
9.10895e-07
-4.90287e-07
6.44855e-09
-1.18968e-07
7.24126e-07
-6.05158e-07
-3.08823e-07
-7.40188e-08
6.35969e-07
-6.42517e-07
6.54826e-09
-6.56075e-07
6.52253e-07
2.8306e-07
4.02918e-07
-6.85978e-07
6.79671e-07
-1.24135e-07
5.47019e-08
6.0705e-07
6.71187e-07
6.54029e-08
7.24528e-08
8.88072e-08
-7.14451e-07
1.57395e-08
-5.65812e-07
6.44197e-07
-3.28153e-07
3.96322e-07
6.05619e-08
-5.94367e-07
5.33805e-07
-5.08505e-09
1.04571e-08
-5.92897e-07
-6.763e-07
6.63538e-07
1.27614e-08
-6.46851e-07
6.6224e-08
4.23254e-07
3.83965e-07
-3.6309e-07
7.44839e-07
-3.81749e-07
7.49236e-07
-6.99296e-07
-4.99403e-08
1.92482e-08
4.59889e-07
-6.43028e-07
-6.82398e-09
6.52645e-07
9.10138e-10
3.20291e-07
-1.09731e-07
8.30773e-07
-7.47697e-07
5.8943e-07
9.35878e-08
3.70321e-08
-6.62785e-07
1.00928e-07
1.00127e-08
-5.75824e-07
7.39686e-07
-5.97884e-07
6.02344e-07
-3.64723e-08
-5.73513e-07
6.09985e-07
-6.49773e-07
6.77085e-07
-8.16553e-09
-9.84061e-07
7.98823e-08
-4.32682e-09
6.3713e-07
1.27966e-08
-5.99339e-07
-6.6079e-07
6.58214e-07
2.57587e-09
7.90918e-07
-4.60112e-07
-3.30807e-07
-5.525e-07
-5.02722e-08
6.02772e-07
-1.21432e-09
-6.50198e-07
1.41239e-08
-7.13036e-08
6.97178e-07
-6.25874e-07
-6.39145e-07
6.42381e-07
-9.27958e-07
-1.35133e-07
-8.97149e-07
8.74405e-07
2.27444e-08
5.09005e-07
2.60154e-07
5.97905e-07
5.46539e-08
-6.52559e-07
6.36183e-07
-2.61305e-08
5.09968e-07
2.56329e-07
-4.54191e-07
1.45368e-07
-6.44625e-07
5.58178e-07
-6.3524e-07
-8.63928e-07
8.60839e-07
3.08915e-09
7.78406e-07
-6.246e-07
6.37547e-07
-1.8411e-09
3.96294e-08
-5.94642e-07
5.55013e-07
-9.63347e-09
-8.54295e-07
7.72275e-07
-7.72275e-07
-3.52305e-07
6.62283e-07
-3.09978e-07
-6.37448e-07
6.37448e-07
6.52513e-07
-5.76258e-07
-7.62553e-08
6.02119e-07
1.45109e-07
6.78997e-07
-5.5769e-07
6.72683e-07
-7.63406e-09
-5.24457e-07
-8.4743e-08
6.092e-07
-8.53533e-07
8.56556e-07
-3.02333e-09
7.8873e-07
-4.74618e-07
-3.14112e-07
1.14865e-07
5.64132e-07
-8.62473e-07
8.58083e-07
4.39012e-09
-2.3135e-10
-6.47105e-09
8.51016e-07
-8.44545e-07
-8.5936e-07
8.5936e-07
-1.03115e-08
6.4628e-07
9.23024e-07
-8.59884e-07
-6.31397e-08
-8.63072e-07
8.56601e-07
8.62146e-07
-8.57817e-07
-4.32897e-09
-6.28245e-07
-1.42715e-08
7.35368e-07
-1.00239e-08
8.56587e-07
-8.46563e-07
8.5683e-07
-8.58467e-07
1.63726e-09
-6.48706e-07
8.52293e-07
-1.27686e-09
-6.60117e-07
6.54376e-07
5.74115e-09
-8.52138e-07
8.55322e-07
-3.18384e-09
6.53154e-07
-6.36006e-07
-8.60779e-07
8.50755e-07
6.60913e-07
-2.10915e-07
3.13008e-07
4.11118e-07
-4.76025e-07
-3.67449e-07
-8.57787e-07
8.57787e-07
-8.61753e-07
-1.31938e-09
7.98042e-07
-1.47495e-07
-6.50546e-07
-5.59967e-07
3.7958e-07
2.17538e-08
8.53686e-07
-8.56394e-07
2.70852e-09
6.28455e-07
-6.2846e-07
5.4409e-12
8.80316e-07
-8.57328e-07
-2.29877e-08
8.49077e-07
4.60898e-09
8.47562e-07
9.02421e-09
-1.84335e-09
-6.35604e-07
-7.81932e-07
4.31577e-07
3.50355e-07
-6.34692e-07
6.38888e-07
8.51874e-07
-2.7975e-09
8.93292e-08
5.77598e-07
4.5754e-07
-1.7448e-07
-8.59587e-07
-1.19152e-09
7.00971e-07
4.15257e-07
-7.08862e-07
-1.09018e-07
-8.75043e-07
6.41094e-07
-6.4534e-07
4.24601e-09
-2.9853e-08
-8.67296e-07
6.67258e-07
-7.61316e-09
7.40429e-07
-5.06004e-07
-2.34425e-07
-6.4176e-07
8.53218e-07
-8.53218e-07
6.1163e-07
9.24355e-09
-6.20874e-07
6.58272e-07
-8.55044e-07
8.53893e-07
1.1511e-09
8.48807e-07
-8.57176e-07
8.36908e-09
5.36293e-07
-7.13368e-07
-2.37796e-09
-8.48984e-07
8.51362e-07
8.47014e-07
-8.49392e-07
-2.78938e-08
9.02298e-07
-6.75967e-07
7.3397e-07
-7.68957e-07
5.33952e-07
-1.35249e-08
8.74364e-07
7.33033e-08
3.77665e-07
9.17629e-09
7.88866e-07
-2.11103e-09
6.81843e-07
-6.79732e-07
-5.97041e-09
-8.57055e-07
-5.41764e-09
7.04991e-07
-7.11513e-08
-6.3384e-07
-8.5136e-07
8.5136e-07
4.9743e-07
-4.28012e-07
-8.58449e-07
8.56141e-07
2.30811e-09
6.56262e-07
-6.56262e-07
6.37993e-07
-9.53842e-09
8.52535e-07
-8.53916e-07
1.38172e-09
-8.22151e-07
2.23983e-07
-1.0434e-11
-6.33697e-07
6.33707e-07
6.86866e-07
-5.79886e-09
8.54189e-07
7.95707e-09
5.18329e-07
8.82696e-08
-6.06599e-07
8.56935e-07
-4.64192e-09
6.67482e-07
-6.67482e-07
8.51506e-07
-8.48455e-07
-3.05126e-09
-6.52284e-07
6.46999e-07
5.28444e-09
8.57933e-07
-8.55358e-07
-2.57471e-09
-8.5283e-07
8.5283e-07
1.27848e-07
5.9795e-07
2.02562e-08
-6.18206e-07
-8.5852e-07
8.56227e-07
2.2933e-09
-3.33112e-09
-6.43709e-07
6.40095e-07
9.99242e-10
7.97632e-07
-1.49191e-07
-6.48441e-07
5.51542e-07
8.49333e-07
-8.51707e-07
2.37354e-09
6.57614e-07
7.00778e-07
9.88471e-09
6.01745e-07
8.71003e-07
-1.6814e-08
8.46427e-07
2.9067e-09
6.23738e-07
-6.23738e-07
-3.28153e-07
8.6137e-07
-8.54546e-07
-2.6304e-09
8.54219e-07
-8.51035e-07
-3.18389e-09
1.70509e-08
-8.70613e-07
8.53562e-07
9.00214e-08
-8.62296e-07
-8.56949e-07
8.55431e-07
1.51826e-09
6.18665e-07
-6.18554e-07
-1.10661e-10
6.52513e-07
-5.75585e-07
5.75585e-07
8.48195e-07
-1.76801e-09
-6.36164e-07
-5.94642e-07
5.97905e-07
6.60863e-07
-7.15863e-09
-1.98842e-09
6.76444e-08
-8.42309e-07
8.54005e-07
-8.54369e-07
3.6432e-10
1.9707e-08
5.98958e-07
2.0251e-08
6.8474e-07
6.42312e-07
-4.31867e-09
-8.5515e-07
8.54076e-07
1.07457e-09
8.47524e-07
-8.50084e-07
2.56038e-09
-8.54192e-07
-4.25704e-09
8.51999e-07
-8.49666e-07
-2.33283e-09
6.43864e-07
1.23982e-08
8.52363e-07
3.7773e-09
-1.14553e-09
8.50582e-07
3.49343e-09
-1.50545e-10
-6.30571e-07
-8.6356e-07
9.26529e-09
-6.39177e-07
6.39177e-07
8.81942e-09
7.88813e-07
-6.49486e-07
1.25029e-07
4.64512e-09
8.52185e-07
3.53128e-08
-6.16643e-07
5.81331e-07
6.21882e-09
8.53142e-07
8.14006e-07
-8.87778e-07
6.44287e-07
2.31953e-08
8.47014e-07
-6.54003e-09
6.0449e-07
-6.20978e-07
2.42383e-09
6.12196e-07
-9.38666e-08
-8.49142e-07
8.49142e-07
-8.53641e-07
-4.87938e-09
5.76258e-07
-5.97307e-07
2.10498e-08
-8.53142e-07
6.27988e-07
-6.27998e-07
8.51921e-07
4.30574e-09
-8.52248e-07
-7.58791e-07
5.2919e-07
-8.5609e-07
8.54627e-07
1.46262e-09
5.80809e-07
5.53739e-08
6.33697e-07
3.75055e-09
-8.46323e-07
8.52269e-07
-5.94613e-09
-6.449e-07
6.3944e-07
5.46034e-09
-8.49015e-07
2.69146e-09
6.41056e-07
-9.60903e-10
3.45784e-08
-6.61192e-07
6.26613e-07
8.48888e-07
-8.52745e-07
3.85691e-09
6.90946e-07
-7.23197e-07
8.48771e-07
-8.48686e-07
-8.52587e-11
-5.40883e-07
5.40883e-07
-6.68286e-07
6.68286e-07
-8.47781e-07
-1.2336e-09
-3.96322e-07
4.69625e-07
-8.50273e-07
8.49009e-07
1.26338e-09
6.84671e-09
8.5094e-07
5.30187e-07
-4.69625e-07
-5.30187e-07
5.5922e-07
5.60969e-07
-6.45712e-07
7.77348e-07
-4.59432e-07
-3.17916e-07
-8.53261e-07
-3.68798e-09
-1.22826e-07
-5.5922e-07
6.82047e-07
8.52143e-07
3.2878e-09
-6.46377e-07
5.96282e-07
8.54724e-07
-8.52968e-07
-1.75603e-09
-8.49547e-07
-6.40583e-07
6.4491e-07
-2.11717e-08
-2.33145e-09
8.54206e-07
8.50463e-07
-6.33707e-07
-8.70853e-07
-5.11749e-07
6.52559e-07
-1.4081e-07
-8.45841e-07
-3.14263e-09
8.49486e-07
1.09598e-09
4.95455e-07
-5.06772e-07
1.13166e-08
9.90239e-10
5.97307e-07
-6.21258e-07
2.39503e-08
3.94018e-07
3.96901e-07
-8.52885e-07
-3.20494e-09
-6.47231e-07
8.45753e-07
-8.45024e-07
-7.28932e-10
8.51816e-07
2.81097e-09
-8.54371e-07
8.53425e-07
9.46155e-10
6.54137e-07
6.43864e-07
-8.47962e-07
8.46039e-07
1.92338e-09
8.53947e-07
-8.53547e-07
-3.99551e-10
-6.36081e-07
6.44287e-07
8.47549e-07
-8.47549e-07
3.47912e-09
8.54604e-07
-5.34975e-07
-1.14511e-07
8.49261e-07
-3.727e-10
-1.08769e-07
5.798e-07
-4.71032e-07
8.47129e-07
-8.464e-07
-7.29055e-10
2.63501e-09
8.50583e-07
8.45563e-07
-8.46354e-07
7.90745e-10
-8.55549e-07
-8.52409e-07
-5.13659e-07
7.77728e-10
8.53115e-07
-1.03378e-09
-8.50435e-07
8.51468e-07
-8.47598e-07
8.45716e-07
1.88178e-09
-8.52862e-07
-1.50901e-09
-6.45717e-07
-6.2432e-07
3.34189e-09
8.51946e-07
1.479e-09
-8.46821e-07
8.46459e-07
3.62118e-10
-8.47392e-07
3.26686e-09
8.44125e-07
8.52623e-07
2.10118e-09
-8.49945e-07
-3.02376e-09
-6.20882e-07
-2.85561e-09
8.52214e-07
-8.52723e-07
5.08887e-10
8.47431e-07
-8.48465e-07
-8.48904e-07
8.47723e-07
1.18092e-09
8.46772e-07
-8.46086e-07
-6.85542e-10
6.38733e-07
4.4447e-10
8.52475e-07
1.47223e-09
-8.51255e-07
-2.29259e-09
-8.54338e-07
6.4491e-07
-8.4724e-07
8.45523e-07
1.71745e-09
5.62499e-07
-5.98972e-07
-8.44846e-07
8.4805e-07
-3.20423e-09
8.47516e-07
-8.48802e-07
1.2859e-09
-2.18233e-09
-8.52009e-07
-8.53752e-10
-2.27029e-09
-7.52267e-07
5.33847e-07
-1.49742e-09
8.47431e-07
-1.4448e-09
-9.38624e-10
-8.52754e-07
7.45193e-10
3.27404e-07
7.16109e-07
-1.04351e-06
-1.7682e-07
8.52193e-07
2.11387e-11
-8.50583e-07
1.63378e-09
8.49727e-07
-8.51074e-07
-1.64849e-09
-6.40988e-07
-8.53619e-07
8.65008e-10
3.10367e-09
8.49431e-07
-1.20485e-10
4.11456e-09
-8.39228e-07
8.35114e-07
8.53397e-07
-8.52958e-07
-4.39674e-10
-6.52192e-07
1.17218e-07
8.51758e-07
-8.50267e-07
-1.49051e-09
-8.52282e-07
-6.32126e-07
-3.36141e-08
8.46601e-07
-8.45924e-07
-6.76928e-10
4.51349e-09
-8.40023e-07
8.3551e-07
-8.53182e-07
8.51556e-07
1.62618e-09
-6.45647e-07
6.40018e-07
5.62858e-09
7.17882e-10
-8.53157e-07
-4.61793e-10
-6.49837e-07
1.34723e-07
5.15113e-07
-8.5206e-07
-1.12185e-09
8.53096e-07
3.0132e-10
-8.5168e-07
-1.27721e-09
-3.51112e-09
-8.53207e-07
5.01146e-11
-6.13913e-07
-6.99404e-08
6.83853e-07
4.90181e-07
3.64508e-09
-8.49727e-07
6.40424e-07
-9.83859e-10
-8.46572e-07
8.46572e-07
-1.65157e-09
8.52692e-07
4.03883e-10
-6.83742e-10
1.36846e-09
1.40035e-09
8.53011e-07
-3.19188e-10
5.12397e-10
8.52799e-07
-8.52794e-07
-4.73032e-12
6.15623e-07
-6.15623e-07
-8.51059e-07
8.49184e-07
1.8757e-09
8.48023e-07
-8.47162e-07
-8.60738e-10
-1.23884e-09
8.5248e-07
5.3077e-10
8.52518e-07
2.81262e-10
-3.14029e-10
8.52515e-07
8.51791e-07
-8.52248e-07
4.57054e-10
-8.6e-07
-8.4905e-07
-2.00941e-09
6.56931e-07
-8.17127e-09
8.51011e-07
7.79718e-10
7.06838e-09
8.51681e-07
-8.5071e-07
-9.71219e-10
-6.08775e-07
6.08775e-07
4.90976e-09
8.47921e-07
-8.46415e-07
8.47797e-07
-1.38111e-09
8.51488e-07
1.92633e-10
4.27624e-09
6.38035e-07
8.50492e-07
-8.50134e-07
-3.57405e-10
-8.43713e-07
-2.70215e-09
8.48192e-07
-8.4888e-07
6.87409e-10
8.49917e-07
5.74772e-10
8.51464e-07
1.0538e-09
-8.32162e-09
-8.42113e-07
-1.22539e-09
-7.50627e-08
-5.71436e-07
8.46749e-07
-8.47578e-07
8.28945e-10
2.54465e-08
5.90177e-07
8.50395e-07
-8.49558e-07
-8.37735e-10
-7.83604e-10
-1.5103e-08
-7.06381e-07
7.21484e-07
-6.16024e-07
6.23125e-07
-7.10029e-09
-8.42728e-07
8.43013e-07
-2.84288e-10
8.49378e-07
1.01719e-09
-8.46797e-07
-5.28428e-07
8.55832e-07
8.49751e-07
-8.48494e-07
-1.25699e-09
-8.50523e-07
8.5054e-07
-1.75572e-11
8.4818e-07
-8.47419e-07
-7.61115e-10
-8.28472e-08
-7.27738e-07
8.10585e-07
8.48841e-07
9.10002e-10
-8.43427e-07
6.98587e-10
8.49875e-07
-8.48793e-07
-1.08264e-09
6.38733e-07
-6.52955e-07
6.52955e-07
8.49561e-07
-8.47902e-07
-1.659e-09
-1.68574e-09
8.49881e-07
-1.33898e-09
-6.39654e-07
8.48303e-07
1.25771e-09
-8.5043e-07
-1.62955e-09
-8.42077e-07
8.4254e-07
-4.62173e-10
8.50528e-07
4.82546e-10
1.4729e-08
8.41827e-07
-1.8132e-10
8.49828e-07
2.17085e-09
6.37412e-07
3.01128e-09
1.09728e-10
-8.42961e-07
8.83671e-10
6.50516e-08
2.43594e-09
2.7255e-08
8.47408e-07
-8.48195e-07
7.86813e-10
-8.41178e-07
8.4218e-07
-1.00175e-09
1.57687e-08
-6.38759e-07
6.22991e-07
1.14034e-07
-6.64141e-07
5.50107e-07
2.40016e-07
6.02598e-07
-6.02598e-07
8.46755e-07
-8.46755e-07
-6.92595e-07
3.88993e-10
-8.48351e-07
6.50238e-07
8.49534e-07
1.95425e-09
-1.59437e-07
-2.97807e-07
4.57244e-07
-8.42453e-07
1.27522e-09
-8.42782e-07
-2.78307e-08
3.60147e-07
-5.93777e-07
2.3363e-07
-6.0015e-10
5.8509e-09
8.42199e-07
1.33875e-09
6.39717e-07
-8.50827e-07
1.80821e-09
8.47334e-07
5.40589e-07
-6.59772e-07
1.19183e-07
5.50202e-07
-1.90056e-07
-1.07205e-09
-8.46526e-07
8.51009e-07
-8.45158e-07
-8.48465e-07
-8.40066e-07
8.39249e-07
8.16568e-10
2.15531e-10
8.48794e-07
8.45858e-07
8.96986e-10
7.7295e-07
-5.13382e-07
-2.59568e-07
-2.0906e-09
6.46377e-07
8.48536e-07
1.38083e-09
7.73137e-07
-8.55984e-07
5.863e-09
8.4216e-07
-1.00879e-09
-8.46232e-07
-8.41101e-07
1.03501e-09
-6.17375e-07
1.35121e-09
6.49215e-07
-5.20571e-07
-1.28645e-07
8.44331e-07
-8.44387e-07
5.57083e-11
-1.02168e-09
2.43415e-07
-3.42405e-07
-3.20548e-07
6.62953e-07
8.45968e-07
-8.47251e-07
1.28356e-09
6.69554e-07
-6.6031e-07
-1.85349e-09
6.45717e-07
-5.54116e-07
3.94679e-07
8.45087e-07
-8.45923e-07
8.35647e-10
8.50013e-07
-8.4415e-07
-6.37422e-07
2.17983e-08
-6.39481e-07
6.38141e-07
1.33948e-09
6.21258e-07
-6.36361e-07
1.38005e-08
8.41522e-07
-6.4627e-07
6.24851e-07
-2.2878e-08
8.48632e-07
-8.47601e-07
-1.03074e-09
6.60229e-07
-6.32272e-07
-2.79571e-08
8.45858e-07
-5.16824e-10
-8.46304e-07
-6.26111e-07
1.79061e-09
7.87837e-08
4.8033e-07
-5.59114e-07
-8.38988e-07
8.38056e-07
9.32532e-10
8.44473e-07
3.04282e-09
-5.34464e-07
-1.11248e-07
6.28741e-09
8.41892e-07
8.47143e-07
-8.49181e-07
2.0382e-09
8.46142e-07
-1.54885e-09
-8.43475e-07
-6.57796e-07
-1.11603e-07
8.4757e-07
1.8085e-09
9.02176e-07
-1.86066e-07
-5.31412e-09
8.46842e-07
-8.41528e-07
8.46344e-07
7.98418e-10
-8.4024e-07
1.2522e-09
-8.42454e-07
-6.23195e-09
-1.58267e-09
8.35437e-07
-8.33854e-07
1.11788e-09
8.46431e-07
8.50131e-07
-8.43843e-07
-8.47334e-07
-2.32122e-09
6.47231e-07
-9.24272e-10
6.41047e-07
-3.21373e-08
-6.0891e-07
8.87635e-09
6.3217e-07
-8.36673e-07
8.3509e-07
-8.47172e-07
-1.87818e-09
5.37825e-07
1.1139e-07
-3.00192e-09
6.55539e-07
-6.52537e-07
-5.41916e-07
-4.53835e-07
5.32619e-07
-7.06813e-07
8.89448e-08
6.17868e-07
8.46057e-07
6.62373e-10
-8.47062e-07
8.60023e-09
8.42409e-07
8.44819e-07
-8.44955e-07
1.3635e-10
8.46665e-07
-8.44125e-07
-2.54059e-09
-8.47786e-07
6.25031e-10
-1.29609e-09
-6.40096e-07
6.41392e-07
1.40728e-10
8.47582e-07
-5.87627e-07
1.72254e-07
-8.46735e-07
8.46233e-07
5.01798e-10
-8.37809e-07
8.36778e-07
1.03086e-09
7.95559e-09
6.89741e-07
-6.69485e-07
5.08247e-07
-1.2792e-08
-4.54772e-09
8.47326e-07
-8.42778e-07
-7.54673e-07
4.12268e-07
8.45763e-07
7.50339e-10
-8.46837e-07
8.46594e-07
2.24655e-09
-7.91076e-07
7.21506e-09
7.8386e-07
1.37736e-09
-8.39186e-07
8.44991e-07
-8.44104e-07
-8.87237e-10
-2.67563e-08
8.50239e-07
-8.23483e-07
-1.30732e-09
-1.74437e-07
7.95844e-07
-6.21407e-07
-6.37422e-07
-6.98028e-07
8.45518e-07
-4.31254e-10
7.5954e-09
8.42418e-07
8.25389e-07
8.53751e-07
-8.53672e-07
-7.89246e-11
7.4767e-10
-6.42614e-07
6.41867e-07
-8.46036e-07
8.45455e-07
5.8129e-10
1.73196e-08
-6.38202e-07
6.20882e-07
8.4714e-07
-8.46829e-07
-3.11219e-10
-6.56192e-07
6.5319e-07
8.44662e-07
-8.43998e-07
-6.63451e-10
2.38715e-09
8.44278e-07
-1.08697e-08
8.49127e-07
-8.4649e-07
7.07588e-09
-6.2347e-07
8.4653e-07
-8.46373e-07
-1.5667e-10
8.46084e-07
4.91489e-10
-8.46416e-07
8.41735e-07
1.75286e-09
-8.43488e-07
2.06584e-10
8.46628e-07
-8.44241e-07
-2.23498e-09
-6.41537e-07
6.43772e-07
4.55512e-07
-6.69565e-07
2.14053e-07
-1.40433e-07
-6.50643e-07
-6.22964e-07
-1.38265e-07
-5.45738e-07
-8.45607e-07
4.9938e-09
8.40613e-07
-6.45326e-07
6.41537e-07
3.78901e-09
-1.95768e-07
-5.176e-07
-8.45084e-07
7.55454e-07
-8.43359e-07
8.44872e-07
-1.51342e-09
-7.03775e-07
6.92918e-08
6.34484e-07
6.75059e-07
-5.18107e-07
-1.56952e-07
-8.46391e-07
1.7391e-09
8.44652e-07
6.4251e-07
-6.34193e-07
1.81161e-09
8.4318e-07
-8.46431e-07
8.80146e-10
8.45692e-07
8.45499e-07
2.80359e-09
-1.48795e-10
-8.46205e-07
-2.84843e-09
-8.43887e-07
-8.44224e-07
6.42091e-07
-6.34875e-07
-3.68147e-09
1.81079e-07
5.5935e-07
-5.76416e-07
5.76416e-07
7.47778e-09
8.42653e-07
-9.59298e-07
-7.81596e-07
7.82344e-07
8.46701e-07
6.41214e-07
-6.36161e-07
-8.45461e-07
8.42613e-07
-7.14601e-07
7.31921e-07
8.44834e-07
-8.44089e-07
-7.4426e-10
1.06277e-09
8.45687e-07
-8.55603e-07
6.44023e-07
-6.46258e-07
-8.4517e-07
1.45728e-09
3.1919e-07
8.4728e-07
-8.46252e-07
-1.02761e-09
-8.46698e-07
8.44885e-07
-8.44181e-07
-7.03374e-10
-8.44767e-07
-8.39581e-10
8.42878e-07
-8.4028e-07
-6.45813e-07
7.78303e-07
8.44148e-07
-8.43886e-07
-2.62166e-10
-1.50272e-09
8.43238e-07
-6.45326e-07
5.59624e-07
-6.05831e-07
4.62067e-08
-1.04205e-06
1.04205e-06
8.4631e-07
8.46466e-07
-2.1577e-09
1.45977e-09
-8.46093e-07
8.49212e-07
-3.11902e-09
8.44623e-07
-8.43908e-07
-7.14634e-10
-7.00971e-07
6.67357e-07
2.68653e-09
8.44156e-07
-8.46351e-07
2.32263e-09
8.44029e-07
-8.43808e-07
8.45618e-07
-8.44487e-07
-6.48023e-07
-8.45654e-07
2.88443e-09
8.42769e-07
-6.48754e-07
-1.87815e-09
6.33649e-07
-6.38186e-07
4.53738e-09
8.4351e-07
-8.44218e-07
7.07647e-10
1.62735e-08
-8.4565e-07
8.44222e-07
1.42786e-09
8.45429e-07
-6.2006e-07
-6.15951e-07
-1.01601e-08
8.46192e-07
-8.46192e-07
-4.40519e-09
6.43138e-07
-8.45692e-07
8.44463e-07
-8.43748e-07
-7.15024e-10
8.46014e-07
-4.77645e-09
-8.4489e-07
-6.29274e-07
-7.71069e-08
-6.47103e-07
5.04912e-07
-5.64355e-07
5.94428e-08
-1.25886e-07
-5.46363e-07
6.72249e-07
8.4286e-07
-8.40599e-07
5.49173e-07
-6.38759e-07
-1.87623e-09
-8.44515e-07
8.4493e-07
-8.44227e-07
-7.02999e-10
6.49306e-07
-6.52809e-07
-1.78372e-07
-1.18106e-07
2.96478e-07
-6.73186e-07
6.78238e-07
6.52014e-07
-6.43138e-07
-2.57044e-09
-6.3217e-07
6.3474e-07
-3.47561e-09
-6.27267e-07
6.30742e-07
2.22768e-09
-6.59017e-07
6.56789e-07
6.10345e-09
-6.61185e-07
6.55082e-07
3.28559e-09
-6.47218e-07
6.43932e-07
-1.04005e-09
-6.33903e-07
6.34943e-07
-7.11211e-10
-6.33541e-07
6.34253e-07
3.80447e-07
-2.56364e-07
-1.24083e-07
5.61793e-07
4.24888e-09
8.43077e-07
6.18066e-07
-6.22502e-07
4.43559e-09
1.98675e-09
-8.44583e-07
8.42596e-07
8.46814e-07
-8.46814e-07
8.35595e-07
-9.34202e-12
-8.35586e-07
-2.92441e-09
-8.42537e-07
8.444e-07
-8.43656e-07
-7.43705e-10
-5.24808e-07
-6.89008e-07
-1.47678e-08
5.54211e-07
1.06018e-07
8.4616e-07
-8.44935e-07
-1.225e-09
-6.44104e-07
6.70669e-07
2.8491e-09
8.43779e-07
-4.64549e-07
-2.90123e-07
6.84667e-09
6.05538e-07
-6.12385e-07
-4.32918e-07
-7.38535e-08
-1.45189e-07
-8.8883e-08
2.34072e-07
6.36419e-07
6.36507e-07
6.64198e-07
6.64376e-07
6.59842e-07
6.50661e-07
-3.02025e-09
-6.37683e-07
6.40704e-07
6.38378e-07
-9.65526e-10
-2.49624e-07
8.44681e-07
-8.42694e-07
-2.11026e-08
6.80049e-07
-8.47024e-07
-5.77921e-07
7.16696e-07
8.34723e-07
3.70573e-10
-8.35093e-07
8.47928e-07
-1.73618e-09
-8.46101e-07
3.10441e-09
8.42997e-07
-6.37521e-07
-6.40096e-07
6.40146e-07
-6.43166e-07
-5.82218e-07
7.02939e-07
-1.20721e-07
-1.53315e-09
-8.44121e-07
4.40791e-07
-5.4956e-07
1.39077e-09
-8.45495e-07
-8.44475e-07
-2.2457e-07
-3.29546e-07
-8.42974e-07
-1.60866e-09
6.47667e-07
2.02074e-07
4.94731e-07
8.43567e-07
-8.42913e-07
-6.54192e-10
6.42375e-07
-4.24628e-07
-2.17746e-07
-3.0633e-07
1.61142e-07
-3.55433e-07
7.67701e-07
-3.07811e-07
6.394e-07
-3.31589e-07
3.61404e-10
8.45606e-07
-8.39773e-07
8.44158e-07
-8.4465e-07
4.91402e-10
-4.78038e-07
2.03424e-07
2.74614e-07
-2.74597e-09
-6.3751e-07
6.40256e-07
8.83861e-07
-3.90035e-07
-4.93826e-07
5.6276e-10
8.35033e-07
-1.84088e-07
-2.93951e-07
-6.17043e-07
6.23889e-07
5.27057e-07
3.4736e-08
-6.14024e-07
-1.23508e-09
-6.38082e-07
6.39317e-07
6.58329e-07
-6.38622e-07
-3.91394e-07
-1.4938e-07
5.40774e-07
-8.42904e-07
8.43158e-07
-2.54333e-10
-6.22033e-07
6.29108e-07
8.43753e-07
-8.44313e-07
-5.63816e-07
-1.25997e-08
-8.5014e-07
8.46956e-07
-4.40451e-07
6.30096e-10
8.44242e-07
7.3593e-07
-4.06699e-07
-3.29231e-07
6.22007e-07
-1.17095e-07
6.96977e-07
-9.1439e-08
6.39269e-07
-6.42015e-07
8.42687e-07
-8.42677e-07
-9.94296e-12
6.39514e-07
-6.40749e-07
7.757e-10
-8.42207e-07
8.41431e-07
-3.5497e-07
-8.54808e-08
2.84438e-09
-6.48657e-07
-8.44629e-07
1.20171e-09