/*--------------------------------*- C++ -*----------------------------------*\
  =========                 |
  \\      /  F ield         | OpenFOAM: The Open Source CFD Toolbox
   \\    /   O peration     | Website:  https://openfoam.org
    \\  /    A nd           | Version:  12
     \\/     M anipulation  |
\*---------------------------------------------------------------------------*/
FoamFile
{
    format      ascii;
    class       volVectorField;
    location    "0.03";
    object      U;
}
// * * * * * * * * * * * * * * * * * * * * * * * * * * * * * * * * * * * * * //

dimensions      [0 1 -1 0 0 0 0];

internalField   nonuniform List<vector> 
4428
(
(0.000228219 8.67208e-05 8.45248e-17)
(-0.000230843 9.57758e-05 -7.53199e-17)
(-0.000213478 9.8916e-05 0)
(-0.000217977 9.32737e-05 0)
(0.000209082 0.000176364 6.80338e-17)
(0.000225084 0.000184249 2.81259e-21)
(-0.000210133 0.000126213 0)
(-0.000233138 8.27101e-05 1.2201e-16)
(0.000228671 9.64163e-05 -2.07557e-16)
(0.000238723 6.73406e-05 8.29492e-17)
(-0.000219195 7.37458e-05 -1.44443e-16)
(0.000210968 9.68258e-05 -1.47387e-16)
(-0.00024389 4.647e-05 -1.69718e-16)
(-7.20178e-05 0.000267337 -7.98475e-17)
(0.000224953 8.67941e-05 0)
(0.000209204 7.4264e-05 0)
(0.00023874 8.74193e-05 0)
(-0.00021922 7.37692e-05 0)
(-0.000244915 4.59654e-05 0)
(0.000229406 8.4691e-05 0)
(8.01792e-05 6.61481e-05 -3.73365e-16)
(-0.000230366 8.78325e-05 -1.48086e-16)
(-0.000216599 9.53784e-05 0)
(-0.000242153 7.68951e-05 0)
(-0.000229103 8.74925e-05 1.88849e-17)
(-0.000217855 7.7097e-05 0)
(-0.00022108 0.000121681 8.61315e-17)
(0.000225525 6.68623e-05 1.73171e-16)
(0.000213546 0.000105724 0)
(-0.000248525 5.19121e-05 0)
(0.000233448 4.85224e-05 0)
(-0.000232873 8.66579e-05 -1.53505e-16)
(0.00023499 7.52862e-05 -7.50169e-17)
(-0.000241535 0.000121061 -2.31189e-16)
(-8.07058e-06 0.000314945 3.91481e-17)
(-0.000231572 9.11519e-05 1.66554e-16)
(-0.000230633 0.000119637 -3.68182e-21)
(0.000210723 0.000284169 1.05871e-17)
(-2.68806e-05 0.000272727 -2.18531e-17)
(-0.000218399 9.72636e-05 0)
(0.000233221 8.36782e-05 0)
(0.000202739 6.04037e-05 0)
(0.000217288 7.28831e-05 7.70273e-17)
(-0.000239053 7.47925e-05 1.38383e-16)
(0.000228242 6.51668e-05 0)
(0.000183368 7.02276e-05 0)
(0.000214081 0.000209369 -8.31545e-17)
(-0.000215941 0.00010894 1.69288e-16)
(-0.000222418 9.82707e-05 1.87052e-16)
(-0.000228834 0.000102383 0)
(0.000229628 9.88442e-05 0)
(0.000198491 0.000104585 1.5677e-16)
(0.000238433 6.95993e-05 -7.60996e-17)
(0.000201263 0.000107267 0)
(0.000209547 9.20749e-05 -1.16488e-17)
(0.000144156 6.45313e-05 0)
(0.000210174 0.000102442 -7.7495e-17)
(-0.000216746 6.55688e-05 0)
(0.000190071 0.000204735 1.52469e-16)
(0.000224754 7.44217e-05 -1.51677e-16)
(0.000236552 9.09595e-05 1.39249e-16)
(-0.000238849 7.52424e-05 0)
(0.000205281 7.943e-05 2.33296e-16)
(-0.000232599 8.64875e-05 7.72493e-17)
(-0.000231155 9.14168e-05 0)
(0.000213012 9.33883e-05 0)
(-0.000236744 7.57629e-05 1.443e-16)
(-0.000219131 9.4896e-05 -1.54852e-16)
(0.000221052 7.74036e-05 -1.51823e-16)
(-0.000230733 9.93268e-05 -3.01594e-16)
(-0.000237666 7.2228e-05 -7.63452e-17)
(0.000220093 0.000101603 1.77213e-16)
(0.000244924 0.000111139 4.83762e-17)
(-0.000214454 9.16541e-05 3.72465e-17)
(0.000226931 8.03475e-05 1.63876e-16)
(-3.77329e-06 0.000307183 -1.52748e-16)
(0.000240399 0.000111467 0)
(0.000247546 0.000101795 0)
(-0.000213835 0.000127258 -9.84549e-17)
(0.00015977 7.22145e-05 -3.45476e-21)
(0.000210299 0.000108747 -1.64617e-16)
(-0.000235073 7.31562e-05 0)
(0.000214335 0.000105572 -1.50887e-16)
(0.000221438 9.65157e-05 -1.4339e-16)
(0.000236894 8.59177e-05 2.65257e-16)
(-0.000257731 7.24749e-05 -2.12245e-16)
(-3.43131e-05 0.000353429 9.59544e-17)
(-0.000234853 8.63945e-05 0)
(-0.00023192 8.76634e-05 -8.00293e-17)
(0.000211341 9.32992e-05 1.70619e-17)
(0.000227747 6.63158e-05 6.97214e-17)
(0.000232988 8.35437e-05 -1.32809e-16)
(-0.000235993 9.38363e-05 0)
(-0.000241539 9.0917e-05 0)
(-0.000231479 9.16821e-05 8.18087e-17)
(-0.000223218 9.64073e-05 1.39268e-16)
(0.000238496 9.3419e-05 9.46106e-17)
(-0.000244264 9.35547e-05 -9.99205e-17)
(-0.000238073 7.13164e-05 7.7393e-17)
(0.000215809 0.000122759 0)
(0.000214145 0.00010011 -1.8762e-17)
(0.000221466 8.75375e-05 0)
(0.000227309 7.9173e-05 0)
(0.00020562 7.88697e-05 -1.56657e-16)
(0.000210099 0.000102769 -8.64187e-17)
(0.000208297 9.90232e-05 2.02222e-21)
(0.000224967 9.26533e-05 1.58607e-16)
(-0.000231413 0.000113571 -1.02048e-16)
(0.000241919 9.23005e-05 -1.00687e-16)
(0.000213946 0.000112771 0)
(0.000224059 7.21043e-05 1.37247e-16)
(0.000223674 8.5592e-05 -1.62338e-16)
(-0.000215389 9.04111e-05 2.23892e-21)
(0.000211912 8.10108e-05 1.38305e-16)
(-0.000132939 8.28489e-05 9.62859e-17)
(-0.000238391 7.06547e-05 1.50196e-16)
(-5.09086e-05 0.000299563 0)
(9.31601e-05 7.35523e-05 4.37292e-17)
(-0.000240242 7.76846e-05 7.39719e-17)
(0.000244598 9.90381e-05 -9.40515e-17)
(0.000248501 9.54347e-05 1.76279e-16)
(-0.000214026 0.000128354 2.01068e-16)
(0.000154738 0.000253256 -1.64083e-16)
(0.000233509 7.66587e-05 -2.53019e-16)
(5.0991e-06 0.000315535 1.48968e-16)
(-0.000232902 8.6628e-05 0)
(-0.000236142 7.70597e-05 -2.26884e-16)
(0.000214454 9.2742e-05 8.29249e-17)
(-0.000231058 9.47918e-05 -2.5342e-16)
(-0.000232435 9.08002e-05 8.05649e-17)
(-0.000237747 7.29408e-05 -1.55946e-16)
(-0.000227088 9.42171e-05 0)
(0.000232336 9.3089e-05 1.86775e-16)
(0.000219153 8.51305e-05 0)
(0.000222712 8.67461e-05 0)
(0.000238225 0.000102851 5.44744e-21)
(0.000244612 0.00010205 -2.03062e-16)
(-0.000238097 7.16947e-05 -1.51992e-16)
(-0.00023271 8.87261e-05 -1.52961e-16)
(-0.000230184 9.33139e-05 1.19959e-16)
(-0.000232476 0.0001149 -1.0309e-16)
(-0.00023244 8.41547e-05 -8.06247e-17)
(0.000219521 8.85129e-05 0)
(0.00022145 8.88255e-05 -1.66193e-16)
(0.000230441 8.56074e-05 0)
(0.000218938 8.43475e-05 8.0638e-17)
(0.000239812 0.000113681 1.07064e-16)
(-5.16812e-06 0.000222143 -7.61632e-17)
(0.000247682 6.1438e-05 2.40743e-16)
(-5.73883e-06 0.000314208 3.78679e-17)
(-0.00023273 8.6775e-05 -1.66263e-16)
(-0.00015006 6.89742e-05 8.35704e-17)
(0.000222565 6.6654e-05 -8.08008e-21)
(0.000249526 8.37411e-05 -2.07189e-16)
(-0.000232269 9.07024e-05 2.42999e-16)
(0.000234641 8.6386e-05 0)
(0.000216374 0.00014418 -1.47608e-16)
(0.00022917 6.61917e-05 -7.90414e-17)
(0.000231235 7.85066e-05 -1.48974e-16)
(-0.00023468 7.42789e-05 -7.60297e-17)
(-0.00023097 9.63598e-05 1.62875e-16)
(0.000224127 8.92089e-05 0)
(0.000245218 7.32759e-05 0)
(-8.11333e-05 3.62275e-05 -1.80983e-16)
(-0.000242459 0.000107065 9.96386e-17)
(-0.000238432 7.26355e-05 0)
(-0.000231615 8.48376e-05 0)
(0.000245036 7.37615e-05 0)
(-0.000231949 8.84956e-05 1.62814e-21)
(-0.000232049 0.000100904 7.80667e-17)
(-0.000236267 7.5692e-05 -7.81676e-17)
(0.000231222 9.25622e-05 3.34453e-21)
(-0.000232787 8.69688e-05 0)
(0.000206514 8.92828e-05 0)
(0.000213305 0.000277997 -9.6981e-18)
(-0.000244173 0.000107813 1.90902e-16)
(0.000233953 8.30878e-05 0)
(0.00020125 0.000107346 1.78828e-16)
(0.000220948 9.77337e-05 1.81619e-16)
(-0.00024371 0.000106825 9.5268e-17)
(-3.73201e-05 0.000311753 -5.74699e-21)
(-0.00022482 9.38866e-05 1.45901e-16)
(-0.000234143 8.17924e-05 1.59962e-16)
(0.000216678 8.10878e-05 0)
(-0.000232526 8.69423e-05 2.5048e-16)
(-0.000228819 0.000109495 -7.93489e-17)
(0.000229285 8.95226e-05 0)
(-0.000231912 9.04469e-05 0)
(0.000201177 8.15743e-05 2.86315e-16)
(0.000233581 0.000105319 0)
(0.000225204 8.16029e-05 0)
(0.000234518 0.000118221 2.15395e-17)
(0.000228641 7.98371e-05 0)
(0.000227736 0.000102009 -3.06566e-16)
(-0.000223144 0.000109819 0)
(-0.000222994 0.000109188 -1.50725e-16)
(-0.000222747 0.000108833 2.25774e-16)
(-0.000221354 0.000106714 7.40658e-17)
(0.000316172 0.000183126 1.23968e-16)
(-7.44376e-05 0.000330004 0)
(0.00022886 0.000104092 1.7814e-16)
(-0.000233989 8.4744e-05 -1.61736e-16)
(0.000186145 9.88994e-05 -1.58593e-16)
(-0.000235724 7.4892e-05 0)
(0.000208182 8.32735e-05 -1.47195e-16)
(0.00022639 7.94157e-05 -2.48386e-18)
(-0.000231516 8.8974e-05 7.77165e-17)
(-5.16276e-05 0.000359297 -1.4826e-16)
(-0.000119769 0.000311539 9.32029e-18)
(0.000153412 7.96777e-05 0)
(0.000233202 0.000101722 0)
(0.000260746 8.69138e-05 0)
(0.000230188 9.68151e-05 4.9394e-21)
(-0.000233622 8.20362e-05 0)
(0.000226112 8.327e-05 0)
(-0.000225522 0.0001075 -1.16743e-16)
(-0.000223569 0.000106078 1.53156e-16)
(1.14472e-05 0.000314242 -1.53913e-16)
(-0.000220267 8.87455e-05 1.66085e-16)
(-0.00022208 0.000108327 -3.78001e-17)
(0.000229575 9.63122e-05 1.62807e-16)
(0.000250855 8.5063e-05 -5.12609e-17)
(-0.000230168 8.9886e-05 1.54561e-16)
(0.000242016 0.000109207 0)
(-0.00022331 0.000108593 0)
(-0.000232317 8.71782e-05 0)
(-0.00023278 8.96473e-05 -9.0607e-17)
(0.000224831 8.05147e-05 -1.60872e-16)
(0.000214277 9.14419e-05 3.19293e-21)
(-0.000231627 9.02993e-05 0)
(-0.000232368 8.45587e-05 8.19383e-17)
(-0.000143946 0.000286248 0)
(0.000197337 0.000129332 0)
(3.93868e-05 0.000349285 7.18142e-17)
(0.000217721 9.08783e-05 4.78865e-17)
(-0.000225344 0.000104645 0)
(-0.000224527 0.0001068 0)
(-0.000224853 0.000105983 1.56851e-16)
(-0.000225401 0.000105281 -1.55148e-16)
(-0.000235256 7.64318e-05 2.48145e-16)
(-2.33722e-05 6.40354e-05 4.28244e-17)
(-0.000247193 9.82494e-05 -4.91732e-17)
(-0.000218945 0.000107363 5.19763e-17)
(0.000224249 9.02664e-05 1.86449e-17)
(-0.000233218 8.27808e-05 -8.02167e-17)
(-6.33399e-05 0.000237165 -8.42982e-17)
(-0.000230315 0.000110685 1.57775e-16)
(-0.000234127 8.36686e-05 1.60683e-16)
(0.000268172 0.000178732 0)
(-2.60203e-05 0.000234265 0)
(-0.0002432 9.96018e-05 5.04122e-21)
(0.000220652 8.76556e-05 1.70333e-16)
(0.000228822 9.83481e-05 -8.80435e-17)
(-0.000223677 0.000105844 1.51576e-16)
(0.000196367 7.27422e-05 -1.09433e-16)
(4.1208e-05 2.71767e-05 8.99321e-17)
(-0.00022442 0.000106046 -3.04662e-16)
(-3.64202e-07 0.000312346 0)
(-0.000266376 9.1163e-05 -3.05666e-17)
(-0.000226518 0.000104675 -1.76472e-16)
(-0.000225981 0.000105172 1.58353e-16)
(-8.07895e-05 4.02231e-05 1.81017e-16)
(-0.000232231 8.50875e-05 0)
(0.000251517 4.88178e-05 1.02513e-16)
(-0.000224601 0.000105075 -7.81556e-17)
(-0.000230759 8.94067e-05 -8.33954e-17)
(0.000240801 8.66705e-05 0)
(-0.000224825 0.000105644 0)
(-0.00015701 0.00034195 1.144e-16)
(-0.000239006 8.10324e-05 -1.53117e-16)
(0.000226432 7.76192e-05 0)
(0.000235056 0.000113621 1.97654e-16)
(0.000224531 8.96089e-05 1.02606e-17)
(-4.42664e-05 0.000253565 2.15373e-16)
(-0.000232408 8.78317e-05 0)
(0.000220056 9.39335e-05 1.65113e-16)
(0.00022764 8.54272e-05 -2.19639e-16)
(-0.00023269 8.41076e-05 1.61917e-16)
(0.000245919 0.000121199 0)
(3.96812e-05 2.56575e-05 -9.20551e-17)
(-0.000260101 0.000108427 -2.21314e-22)
(-3.7882e-05 0.00031636 8.0286e-17)
(0.000225432 8.55949e-05 0)
(-0.000234744 7.77215e-05 -2.49318e-16)
(0.000210079 0.000118701 3.27795e-16)
(0.000205794 0.000117489 -7.60384e-17)
(0.000227509 8.96918e-05 -1.10794e-17)
(0.000229164 7.85352e-05 -1.05208e-16)
(0.000229379 9.10224e-05 1.62034e-16)
(0.000228471 8.50379e-05 0)
(-0.000255326 7.2842e-05 1.19652e-16)
(-0.000240546 7.8688e-05 -1.55913e-16)
(-0.000227034 0.000102421 -6.22677e-19)
(0.000215369 0.000106277 0)
(0.000212295 9.57641e-05 1.78896e-16)
(7.39381e-05 2.42606e-05 1.93323e-16)
(-0.00023078 8.59813e-05 1.62948e-16)
(-0.000224002 0.00010484 1.73306e-16)
(-0.000229876 0.000105989 0)
(-0.000141242 0.000333338 1.63973e-16)
(-0.000233369 8.4647e-05 4.92009e-21)
(0.000216584 8.36665e-05 9.55804e-17)
(-0.000232039 8.54377e-05 0)
(-0.000225819 0.000104542 -9.89878e-18)
(-0.000225561 0.000105351 0)
(-0.000225102 0.000105378 -1.5493e-16)
(-0.000231531 9.07704e-05 0)
(-3.51475e-05 0.000348737 -9.96628e-17)
(0.000147149 8.61358e-05 -2.87137e-16)
(0.000220286 0.000118638 1.04667e-16)
(-0.000232497 8.4855e-05 8.16441e-17)
(0.00022194 8.80035e-05 0)
(0.000237545 0.000116439 -1.05475e-16)
(-3.90665e-05 0.000338074 -1.58716e-16)
(0.000138995 4.68103e-05 -1.86591e-16)
(0.000224844 9.241e-05 0)
(0.000228129 0.000102913 0)
(0.000223713 9.50385e-05 -1.5635e-16)
(-0.000234221 7.91363e-05 0)
(-0.000230869 8.81897e-05 1.63812e-16)
(-5.79063e-05 0.000372791 -5.14685e-18)
(-0.000244871 0.000111023 -8.45779e-17)
(-0.000213418 8.25267e-05 5.09076e-17)
(0.000221224 8.57059e-05 3.24443e-16)
(-0.000164064 0.00050486 -1.21736e-16)
(0.000378336 0.000149312 -1.64902e-16)
(0.000214716 0.000103718 -1.77158e-16)
(-0.000229244 8.951e-05 8.03604e-17)
(-0.000229823 0.000108014 -1.0148e-17)
(-0.000223858 0.000106377 -1.57916e-16)
(0.000224155 8.56295e-05 1.74828e-16)
(-0.00023162 8.56487e-05 0)
(-0.00023199 8.56132e-05 8.25723e-17)
(-0.000266747 9.0636e-05 1.25803e-16)
(-0.00023258 0.000111687 0)
(-0.000228851 0.000106324 0)
(0.000232997 0.000113271 -1.02739e-16)
(0.000213244 8.07878e-05 0)
(-0.000232397 8.691e-05 0)
(0.000217104 8.3795e-05 0)
(-0.00022531 0.000104618 9.86052e-18)
(-0.000228298 0.000103053 6.28961e-19)
(0.000211302 6.59282e-05 0)
(0.000226577 8.33027e-05 1.60745e-16)
(5.2522e-07 0.00031529 0)
(0.000230367 7.22381e-05 0)
(-0.000232947 8.58816e-05 4.10457e-17)
(-0.000234042 8.32478e-05 -2.51242e-16)
(2.12192e-05 0.000137129 0)
(-0.000230163 8.9042e-05 -1.61185e-16)
(-0.000246977 5.40633e-05 7.69867e-17)
(-0.000253155 9.55253e-05 -3.82611e-21)
(-0.00024589 8.17813e-05 -2.02835e-16)
(-0.000266984 8.85873e-05 1.25971e-16)
(-0.000226461 0.000109007 0)
(-0.000234389 8.06938e-05 1.68433e-16)
(-0.00023008 8.83981e-05 8.35811e-17)
(0.000226394 8.59659e-05 0)
(-0.000228561 7.70836e-05 1.35457e-16)
(-0.000231498 8.56295e-05 -2.23954e-16)
(-5.36309e-06 0.000303751 0)
(-0.000223856 0.000103906 -2.33703e-16)
(-0.000230265 9.80359e-05 0)
(-0.000232727 8.6441e-05 0)
(0.000230024 8.35437e-05 1.69269e-16)
(-0.000232068 8.49484e-05 8.44892e-17)
(0.000202758 7.1229e-05 1.78989e-16)
(0.000227914 9.24491e-05 -1.69947e-16)
(-0.000161962 7.9789e-05 0)
(-0.000245177 8.23154e-05 0)
(-0.000230386 8.90054e-05 0)
(0.000225198 8.77516e-05 -1.77262e-16)
(0.000234818 0.000106132 0)
(0.000228087 8.54418e-05 0)
(-0.000246861 0.000107012 -2.49475e-16)
(4.18953e-05 0.000302474 1.8166e-16)
(-0.000227189 0.000107369 1.60236e-16)
(0.000241278 7.37281e-05 -1.79662e-16)
(-5.64821e-06 0.000161104 -5.16202e-17)
(-0.000231603 9.04509e-05 0)
(-0.000230321 9.85717e-05 2.49802e-16)
(-0.000220351 0.000106374 -1.50286e-16)
(2.83886e-05 0.000237981 9.02412e-17)
(0.000246074 4.46866e-05 0)
(0.000251237 6.17423e-05 9.55916e-17)
(0.000217417 9.37806e-05 1.48171e-16)
(-4.56158e-05 3.45576e-05 1.75613e-16)
(-0.000231581 8.50942e-05 -7.53293e-17)
(0.000227364 9.03459e-05 0)
(0.00014116 5.3571e-05 0)
(0.000197845 5.90522e-05 3.22081e-16)
(-0.000230686 8.90846e-05 0)
(0.000238465 7.37357e-05 -8.93594e-17)
(-0.000250561 6.3129e-05 1.05081e-16)
(-0.000232585 8.86292e-05 7.98451e-17)
(0.000220026 8.80741e-05 -1.62643e-16)
(-0.000270557 0.000100772 -1.1332e-16)
(-0.00022477 9.62315e-05 1.54086e-16)
(-0.000252586 0.00011629 8.41754e-17)
(-0.000172651 6.89811e-05 -9.07873e-17)
(-0.000232756 8.78538e-05 0)
(-0.000231897 8.81429e-05 0)
(-1.88911e-05 0.00011671 0)
(6.53921e-06 0.000302849 -2.09155e-16)
(-0.000244704 8.40865e-05 0)
(-0.00023293 0.000115714 -7.26937e-17)
(0.000225269 8.52841e-05 3.13476e-16)
(0.000215742 9.14724e-05 -9.2648e-17)
(0.000226016 7.82486e-05 3.16281e-16)
(0.000228331 9.3116e-05 -4.57639e-17)
(0.00022591 8.57307e-05 -4.62037e-21)
(-0.0002296 9.28694e-05 -4.09417e-17)
(-0.000230234 9.02863e-05 -8.03074e-17)
(-1.89995e-05 0.000355808 4.97839e-18)
(-0.000231078 8.92339e-05 -1.6275e-16)
(-0.000229481 9.6273e-05 -4.29202e-17)
(0.000214385 9.34504e-05 0)
(-0.000231923 8.92766e-05 -8.13242e-17)
(-0.000254749 9.70417e-05 -2.99109e-16)
(-0.00022799 0.000102123 -1.16164e-17)
(-0.000232764 8.68392e-05 0)
(-0.00023502 7.44707e-05 4.02922e-17)
(-0.000231685 8.57791e-05 -8.23074e-17)
(0.000244762 0.000108101 -1.7394e-16)
(-0.000229794 9.13523e-05 -8.28947e-17)
(3.5704e-05 0.000348959 5.80476e-18)
(0.0002203 7.93459e-05 2.03597e-17)
(-6.56061e-06 0.000338052 -1.65721e-16)
(-0.000255904 0.000111615 2.353e-16)
(-0.000224077 7.41857e-05 -3.32115e-16)
(0.000225493 8.68751e-05 8.58801e-17)
(-0.000256057 0.000111776 1.0495e-16)
(3.28343e-05 0.0001747 6.7612e-17)
(-0.000229383 9.09805e-05 1.64987e-16)
(0.000219691 7.39503e-05 1.47228e-16)
(-2.54201e-06 0.000331656 0)
(-4.72228e-06 0.000287317 -2.3661e-16)
(-0.000230068 9.5301e-05 -1.31026e-16)
(0.000223363 7.60477e-05 -4.32996e-17)
(-2.62237e-06 0.00033076 6.58578e-19)
(0.000270895 0.000107915 8.13943e-17)
(-0.000213125 8.62011e-05 2.46087e-16)
(-0.000232396 8.82994e-05 -4.24913e-17)
(-0.000236153 8.09033e-05 0)
(-0.000239363 8.63122e-05 1.90865e-16)
(0.000222817 9.04682e-05 -1.68584e-16)
(-0.000230338 9.04206e-05 -8.06694e-17)
(0.000221376 8.82247e-05 0)
(-5.22013e-07 0.000329035 -1.68231e-16)
(-0.000255217 9.58054e-05 1.00644e-16)
(0.000259254 0.00023211 -3.05281e-16)
(0.00022873 8.73156e-05 0)
(-1.4548e-06 0.000329053 0)
(0.000234623 9.39419e-05 4.94336e-21)
(1.00951e-06 0.000328038 -1.6843e-16)
(5.20864e-07 0.000329038 3.34928e-16)
(-0.000229645 9.02052e-05 4.15418e-17)
(-2.06759e-05 0.000339131 1.64761e-16)
(-8.55592e-07 0.000327845 0)
(-2.10934e-06 0.000329381 1.67634e-16)
(-0.00022978 8.95965e-05 0)
(0.000266958 0.000144589 0)
(1.10809e-06 0.000328524 0)
(-5.0013e-07 0.000328515 -1.6787e-16)
(-0.000229336 9.43944e-05 0)
(-1.203e-06 0.00032872 3.37735e-16)
(-0.000232094 8.80641e-05 0)
(-4.74034e-07 0.000328716 -1.68687e-16)
(-0.000230072 8.97262e-05 -2.44324e-16)
(-5.63167e-07 0.00032762 0)
(-0.000227904 9.46443e-05 8.05872e-17)
(-0.000104789 0.000375562 -3.92818e-17)
(0.000244112 0.000113258 2.08553e-16)
(0.000255419 9.51145e-05 0)
(6.5784e-08 0.000328509 1.21071e-20)
(-1.28888e-06 0.000328987 -1.66162e-16)
(-0.000235621 7.48941e-05 -7.09806e-17)
(0.000219565 9.88624e-05 -1.71456e-16)
(0.00019242 7.91683e-05 0)
(0.00022423 8.6505e-05 2.58557e-16)
(-2.32834e-07 0.000328554 1.68337e-16)
(-0.000229426 8.98747e-05 0)
(-8.11877e-06 0.00033219 1.6714e-16)
(-2.50691e-07 0.00032776 0)
(-5.54675e-07 0.000328292 -1.70737e-16)
(-0.000230887 8.99876e-05 0)
(0.000226492 0.000102094 1.62725e-16)
(-0.000231663 8.86344e-05 2.23479e-21)
(6.56993e-08 0.000327656 1.69075e-16)
(0.000228977 8.41226e-05 -3.49465e-16)
(3.69293e-05 0.000189878 0)
(-1.18855e-06 0.000328953 0)
(0.00025475 0.00011787 1.2219e-16)
(0.000228486 7.85289e-05 0)
(-2.55731e-05 0.000352701 0)
(-0.000231998 8.76761e-05 -2.93581e-16)
(-8.86512e-06 0.000336598 0)
(-0.000230319 9.01832e-05 8.12991e-17)
(-0.000195108 0.000166829 -4.37822e-17)
(-0.000229219 9.4453e-05 1.67597e-16)
(8.04072e-08 0.000327977 -3.37195e-16)
(-0.00023476 8.77918e-05 4.51319e-17)
(-0.000227881 9.47556e-05 1.60806e-16)
(-4.01203e-07 0.00032815 0)
(-7.70163e-07 0.000327636 -1.65211e-16)
(0.000210001 6.93601e-05 0)
(1.1337e-07 0.00032837 -1.70176e-16)
(2.2762e-07 0.000328011 0)
(-1.54859e-05 0.000341078 1.67734e-16)
(-1.27639e-06 0.000288924 -1.89341e-16)
(-0.000232386 0.000105104 9.78414e-17)
(-4.74409e-06 0.000332774 8.18128e-20)
(0.000163073 4.80576e-05 0)
(-0.000240332 8.71439e-05 6.66556e-17)
(-0.000228277 9.59144e-05 3.90718e-17)
(7.1344e-07 0.000327502 3.3752e-16)
(-1.3005e-06 0.000328757 1.68005e-16)
(-0.00023476 9.15092e-05 -3.8834e-16)
(2.0741e-07 0.000328099 1.68906e-16)
(0.000204167 6.16516e-05 5.40891e-21)
(-1.6984e-06 0.00032814 1.67172e-16)
(-0.000232653 8.8419e-05 0)
(-0.000228768 9.21706e-05 4.26825e-17)
(-1.5988e-07 0.000328209 -1.21617e-20)
(0.000224302 0.000115078 1.75072e-16)
(-0.000231168 9.05529e-05 -8.57024e-17)
(-0.000227978 9.42999e-05 -7.49177e-17)
(-8.33717e-07 0.00032856 -1.67941e-16)
(0.000224352 8.81011e-05 2.93001e-18)
(-1.04711e-08 0.000328342 -1.21649e-20)
(-0.00023381 8.81801e-05 4.00727e-17)
(1.04256e-06 0.000327736 0)
(-0.000231964 8.75066e-05 0)
(-1.92758e-06 0.00032858 -1.67892e-16)
(1.66455e-07 0.000328347 1.68558e-16)
(0.000222725 9.33266e-05 -2.04403e-17)
(-0.000235723 8.19164e-05 1.83103e-16)
(-1.75532e-06 0.000328193 1.6648e-16)
(3.98136e-07 0.000327666 0)
(-0.000229688 9.35065e-05 0)
(-0.000228793 9.43301e-05 1.27838e-16)
(-0.000237263 7.35368e-05 0)
(-1.23382e-05 0.000201399 -9.02587e-17)
(-5.97554e-08 0.000328318 1.68929e-16)
(-0.000228254 9.39469e-05 -1.21145e-16)
(-0.000229586 9.09932e-05 0)
(-0.000228702 8.68572e-05 4.4178e-17)
(-3.03736e-06 0.00032928 1.64176e-16)
(8.3273e-09 0.000327813 -1.22254e-20)
(-0.000230591 8.81156e-05 -4.28446e-17)
(0.000133556 1.60924e-05 -1.82496e-16)
(-2.93993e-06 0.000330035 -1.67025e-16)
(-9.75651e-07 0.000328697 1.68424e-16)
(4.21235e-07 0.000327897 1.69155e-16)
(-8.5773e-08 0.000329047 -1.668e-16)
(0.00027405 0.00013957 -1.60043e-16)
(-1.98887e-06 0.000328183 -1.67594e-16)
(-0.000232162 8.77476e-05 0)
(-0.000232783 9.20152e-05 0)
(0.000224736 9.0814e-05 0)
(-5.12934e-07 0.000327775 -1.69645e-16)
(-0.000227922 9.45642e-05 2.06789e-16)
(0.000223932 8.2763e-05 -1.30961e-16)
(-0.00021906 8.91075e-05 2.26132e-16)
(-0.000230285 8.98441e-05 -1.64099e-16)
(-0.000230584 8.91956e-05 -8.43868e-17)
(-0.000248799 0.000117053 -8.37136e-17)
(-1.03786e-06 0.000327915 -3.38168e-16)
(8.88298e-07 0.000327842 7.05266e-20)
(-0.000229205 9.59805e-05 -4.83381e-17)
(-0.000230667 9.20434e-05 3.83305e-17)
(-0.000230674 8.94277e-05 -4.21063e-17)
(1.33464e-06 0.000328251 -1.68851e-16)
(2.4455e-07 0.000327838 3.41862e-16)
(-1.63082e-06 0.000328186 -1.69138e-16)
(2.73777e-07 0.000328179 -6.6282e-19)
(-0.000230388 9.09124e-05 4.09418e-17)
(-1.17251e-06 0.000327939 0)
(1.57627e-06 0.000328077 -1.69823e-16)
(1.0311e-06 0.000327726 1.68962e-16)
(1.36973e-06 0.000328274 2.92122e-20)
(-0.000230358 8.83456e-05 8.50593e-17)
(-1.82756e-06 0.00032999 0)
(-0.000231164 8.79064e-05 -1.67183e-16)
(-0.000241105 8.64631e-05 0)
(0.000226088 8.62644e-05 -1.85386e-16)
(-1.59655e-07 0.000328021 -1.3159e-18)
(0.000214091 8.84366e-05 1.64922e-16)
(2.08137e-07 0.00032799 -1.21109e-20)
(-1.97471e-05 0.000336684 0)
(-1.34325e-05 0.000332488 -1.66063e-16)
(-0.000231584 8.81647e-05 0)
(-0.000233036 8.79297e-05 -8.22147e-17)
(2.27679e-06 0.000327805 0)
(-0.000229473 8.8768e-05 -1.78397e-16)
(-0.000230475 9.00811e-05 -8.863e-17)
(0.000224866 8.99091e-05 1.78121e-16)
(1.2711e-07 0.000327973 -1.6924e-16)
(-1.90386e-06 0.000328194 -1.69304e-16)
(-0.000231635 9.04904e-05 4.62955e-17)
(-3.84323e-07 0.000328 -1.66926e-16)
(-0.000228315 8.68861e-05 2.59659e-16)
(-1.57514e-06 0.000327871 -1.68579e-16)
(4.604e-07 0.000328063 -1.21305e-20)
(-0.000235393 0.000107198 -1.97138e-16)
(-2.09908e-06 0.000328145 1.67195e-16)
(0.00022642 8.53928e-05 0)
(-0.000230167 9.00968e-05 -4.18766e-17)
(-9.99863e-08 0.000327954 2.65749e-18)
(-0.000232203 8.69748e-05 8.39806e-17)
(-5.73228e-08 0.000327828 -1.33397e-18)
(-0.000230334 8.83859e-05 4.20511e-17)
(-0.000221112 7.98667e-05 0)
(8.76907e-07 0.000328111 -1.21927e-20)
(-0.000251029 0.000106079 2.50769e-16)
(2.08283e-07 0.000328251 1.70395e-16)
(0.000214054 0.000104686 -4.8982e-17)
(-0.00022939 9.73393e-05 1.62674e-16)
(-6.40732e-08 0.000328028 1.70517e-16)
(0.000167474 6.67944e-05 1.79191e-16)
(-4.25014e-07 0.000328067 1.69438e-16)
(2.79287e-07 0.000327991 2.64397e-18)
(0.000191956 7.04017e-05 1.89364e-16)
(0.00020515 7.32258e-05 -1.7712e-16)
(0.000233082 9.07023e-05 0)
(-0.000255318 0.000104164 0)
(-1.9261e-06 0.000328109 -1.32593e-18)
(0.000213285 8.27369e-05 2.33313e-16)
(-1.89037e-06 0.000327885 -1.31647e-18)
(-0.000230766 8.94543e-05 -8.18703e-17)
(0.000213952 6.83513e-05 0)
(1.73956e-06 0.000327996 -3.3797e-16)
(2.98761e-07 0.000327982 -3.40066e-16)
(-0.000229641 9.26943e-05 0)
(-0.000230779 8.83035e-05 0)
(2.16294e-07 0.000328242 -3.37942e-16)
(-6.55655e-06 0.000331353 0)
(-0.000228072 9.67847e-05 -1.62903e-16)
(-4.38525e-06 0.000329858 -3.3377e-16)
(-0.000210046 7.86977e-05 0)
(0.000240259 6.92183e-05 4.37384e-17)
(2.9321e-09 0.00032762 -1.33953e-18)
(7.66674e-07 0.000328332 1.70263e-16)
(0.000179471 0.000112047 -5.86408e-18)
(9.49801e-08 0.000327965 -1.70665e-16)
(-0.00023213 8.58275e-05 1.312e-16)
(-0.000256694 0.000116778 1.15823e-16)
(-2.07235e-06 0.000328053 1.68227e-16)
(-0.000232078 8.65709e-05 1.21459e-16)
(-3.59372e-07 0.000328124 1.70682e-16)
(-1.95357e-06 0.000327928 -1.68842e-16)
(-2.18244e-06 0.00032801 -1.68261e-16)
(-0.000228803 9.30691e-05 0)
(-0.000231358 8.69583e-05 -4.15577e-17)
(-2.29662e-07 0.000327921 -6.65669e-19)
(1.99273e-06 0.000328077 0)
(-0.000228481 9.33506e-05 1.65577e-16)
(-0.000230717 8.70752e-05 0)
(2.97191e-07 0.000328032 -1.69506e-16)
(-1.62802e-06 0.000329019 2.63533e-18)
(0.00022455 8.71314e-05 -1.78949e-16)
(3.03156e-07 0.000327996 -3.42386e-16)
(-0.000247304 9.34852e-05 2.84654e-16)
(-1.2535e-07 0.000328006 0)
(-8.67765e-08 0.000328037 1.68971e-16)
(-7.01294e-08 0.00032804 0)
(9.58885e-09 0.000327969 1.69021e-16)
(2.59678e-07 0.000327973 -1.68594e-16)
(0.000184187 7.51244e-05 1.0115e-16)
(8.34019e-08 0.000327901 1.68712e-16)
(1.46113e-07 0.000328766 -1.22174e-20)
(1.11658e-09 0.000327999 1.70673e-16)
(-2.26959e-06 0.000328062 3.37215e-16)
(-0.000231183 8.84501e-05 0)
(-0.000231279 8.86553e-05 -4.37739e-17)
(-1.98585e-06 0.000327971 0)
(-4.72681e-08 0.000328019 0)
(-2.52167e-07 0.000327866 -1.72182e-16)
(1.99177e-06 0.000328167 1.69253e-16)
(1.666e-06 0.000328144 1.69891e-16)
(-0.000230534 9.04152e-05 2.14752e-16)
(1.77907e-06 0.000328014 1.69417e-16)
(-1.34405e-07 0.000328136 -1.70666e-16)
(-3.07844e-07 0.000328033 0)
(-8.85478e-08 0.000328002 -1.22534e-20)
(-0.000231085 8.89291e-05 8.36483e-17)
(1.97256e-06 0.000328055 0)
(1.87941e-06 0.00032792 1.69535e-16)
(-8.01671e-07 0.000328633 -1.71052e-16)
(-0.000232942 8.68161e-05 0)
(-9.4391e-11 0.000328009 0)
(0.000226587 8.72597e-05 -1.77696e-16)
(-3.47688e-08 0.000328239 1.33236e-18)
(-2.97127e-08 0.00032833 -3.32125e-19)
(-1.5841e-06 0.000327732 -6.60075e-19)
(-2.20922e-06 0.000327943 1.21658e-20)
(-1.76549e-06 0.000327776 6.60614e-19)
(-0.000236969 0.000109397 -1.03416e-16)
(-2.11661e-06 0.000327751 1.6968e-16)
(1.10796e-06 0.000328124 0)
(-2.07687e-06 0.000327804 1.68474e-16)
(-2.10871e-06 0.000327877 -1.68762e-16)
(-2.23131e-06 0.000328019 -1.69546e-16)
(-0.000278735 0.000228414 -2.57061e-16)
(-5.25988e-05 6.56971e-05 -3.20252e-16)
(2.04183e-06 0.00032808 -1.69766e-16)
(-2.00842e-07 0.000327959 -1.69232e-16)
(2.13674e-08 0.000328029 -1.69193e-16)
(1.83901e-06 0.000327918 1.69587e-16)
(-0.000232304 8.76337e-05 -1.68732e-16)
(-2.3556e-06 0.000327898 1.68455e-16)
(-2.14692e-07 0.00032805 -1.68914e-16)
(-1.5221e-06 0.000328696 -3.35982e-16)
(-1.62235e-07 0.000327958 -1.33612e-18)
(2.17906e-06 0.000327963 1.68945e-16)
(0.000224895 8.60945e-05 1.77725e-16)
(-6.80548e-07 0.000328173 -1.68946e-16)
(1.25656e-07 0.000328008 -1.21568e-20)
(0.000239687 9.86113e-05 -2.19177e-16)
(-7.0712e-08 0.00032799 0)
(-1.31982e-07 0.000328003 0)
(-2.35123e-06 0.000327954 -3.38554e-16)
(-0.00023122 8.86503e-05 8.39324e-17)
(4.61973e-08 0.000327805 -3.33753e-19)
(-2.7294e-06 0.000328066 1.76902e-19)
(0.000226018 8.60075e-05 1.18131e-17)
(-2.50257e-06 0.00032824 1.69234e-16)
(2.48282e-06 0.000328073 1.69212e-16)
(2.28097e-06 0.000328001 -1.69089e-16)
(5.65493e-07 0.000327993 -1.69564e-16)
(-2.6681e-06 0.000328092 1.21606e-20)
(-0.000239203 8.35641e-05 -1.79566e-16)
(-0.000191384 7.10606e-05 2.21237e-16)
(-2.76844e-07 0.00032766 -1.22264e-20)
(-1.66789e-07 0.000327953 -1.6883e-16)
(-0.000229285 9.36141e-05 4.26041e-17)
(2.08304e-07 0.000328054 -1.22537e-20)
(-2.45674e-06 0.000327833 6.70975e-19)
(2.46807e-06 0.000327953 -3.38378e-16)
(1.09404e-06 0.000327629 1.69866e-16)
(2.08863e-06 0.000327868 -1.69864e-16)
(2.0593e-06 0.000327936 -1.6986e-16)
(2.46501e-06 0.000327995 1.69276e-16)
(2.04327e-06 0.0003279 1.6557e-19)
(2.44963e-06 0.000328011 0)
(0.000226664 8.57121e-05 0)
(-1.98597e-06 0.000328045 1.70412e-16)
(-1.63165e-07 0.000328391 0)
(4.45712e-07 0.000328273 1.69785e-16)
(2.45316e-06 0.000327993 0)
(2.44041e-06 0.00032803 1.69333e-16)
(2.4754e-06 0.000327966 -8.26617e-20)
(2.76805e-07 0.000328235 1.66141e-16)
(2.22746e-06 0.000328146 0)
(-5.77002e-07 0.000328334 0)
(-2.04954e-06 0.000328298 -1.70595e-16)
(-0.000230524 8.93516e-05 -2.05248e-21)
(2.1685e-06 0.000327992 0)
(-4.90647e-06 0.000333609 0)
(2.13587e-06 0.000328 0)
(-0.000225907 8.60694e-05 1.30978e-16)
(1.82038e-07 0.000327981 -1.6904e-16)
(-1.54031e-06 0.000328687 1.70573e-16)
(2.2363e-06 0.000328205 -8.28397e-20)
(-0.000224728 9.5073e-05 4.63982e-17)
(-0.000229524 9.2944e-05 -4.2361e-17)
(1.96015e-06 0.000328128 -1.69855e-16)
(-5.51313e-07 0.000327495 0)
(-8.38028e-08 0.000328619 -1.69922e-16)
(1.978e-06 0.000328159 1.2205e-20)
(2.47368e-06 0.00032794 -1.69721e-16)
(-3.73278e-07 0.000327385 3.37544e-16)
(0.000219281 6.9177e-05 -3.04669e-16)
(0.000226651 8.82997e-05 -3.59108e-16)
(-3.23479e-07 0.000328118 3.39386e-16)
(0.000223301 8.76833e-05 0)
(1.93412e-06 0.000328162 0)
(2.50631e-06 0.000327906 -3.30841e-19)
(-0.000237538 9.43046e-05 -1.53355e-16)
(-0.000230051 9.44424e-05 8.82567e-17)
(1.56651e-07 0.000327863 -8.35056e-20)
(1.94808e-06 0.000328195 1.69898e-16)
(2.19151e-07 0.000328005 -1.6928e-16)
(-0.00021013 0.000201434 8.565e-17)
(1.84608e-06 0.000328152 6.64059e-19)
(-2.4e-06 0.000328169 1.69423e-16)
(-1.98172e-07 0.000328484 1.70065e-16)
(-0.000262904 0.000134674 -1.67922e-16)
(1.90633e-06 0.000328266 0)
(-1.36363e-07 0.000328037 3.34655e-19)
(-4.9024e-07 0.000328374 -1.69259e-16)
(-0.000231318 8.7703e-05 0)
(0.000239397 6.76187e-05 3.21495e-16)
(-0.000228294 9.57192e-05 4.47243e-17)
(1.82247e-06 0.000328188 -6.64168e-19)
(2.62702e-07 0.000328111 -1.69863e-16)
(-2.13395e-06 0.000327811 -1.69719e-16)
(-0.000230201 9.25444e-05 2.53419e-16)
(1.83609e-06 0.000328301 -1.7008e-16)
(-2.82783e-06 0.000327931 6.6087e-19)
(1.4772e-07 0.000327855 1.67164e-19)
(2.28678e-06 0.000327922 0)
(-1.37717e-07 0.00032852 0)
(2.31074e-06 0.000327893 0)
(2.41824e-07 0.000328149 0)
(-0.000230617 8.78716e-05 -4.21516e-17)
(-2.51382e-06 0.000327804 0)
(-1.64769e-07 0.000328018 0)
(0.000243194 0.000114867 1.31262e-16)
(1.91775e-07 0.00032813 0)
(-1.34459e-05 0.000341274 0)
(-6.66521e-08 0.000328544 3.40018e-16)
(1.20862e-07 0.000327857 0)
(0.000225021 8.21799e-05 -4.00964e-17)
(0.000225957 8.77608e-05 0)
(0.000195708 0.000104972 8.82718e-17)