/*--------------------------------*- C++ -*----------------------------------*\
  =========                 |
  \\      /  F ield         | OpenFOAM: The Open Source CFD Toolbox
   \\    /   O peration     | Website:  https://openfoam.org
    \\  /    A nd           | Version:  12
     \\/     M anipulation  |
\*---------------------------------------------------------------------------*/
FoamFile
{
    format      ascii;
    class       surfaceScalarField;
    location    "0.16";
    object      phi;
}
// * * * * * * * * * * * * * * * * * * * * * * * * * * * * * * * * * * * * * //

dimensions      [0 3 -1 0 0 0 0];

internalField   nonuniform List<scalar> 
6438
(
-2.61009e-08
3.24647e-06
-3.22037e-06
-2.84705e-08
3.7714e-06
-3.74292e-06
-3.53706e-06
-5.9905e-07
4.13611e-06
3.35611e-06
-3.6829e-06
3.26782e-07
5.15767e-06
-4.02889e-06
-1.12878e-06
1.17135e-06
3.98632e-06
-4.01914e-06
4.82076e-07
-3.4854e-06
3.45693e-06
3.76479e-06
-4.49508e-06
7.30286e-07
3.50071e-06
-4.10453e-06
6.03826e-07
-3.38546e-06
4.11643e-06
-7.30969e-07
8.12742e-07
-3.71111e-06
2.89837e-06
-4.19064e-06
8.05177e-07
3.21718e-06
1.47731e-06
-4.69448e-06
3.02207e-06
-3.04817e-06
-1.70834e-07
3.54208e-06
-3.37125e-06
-4.46253e-06
4.32739e-06
1.3514e-07
-3.37887e-06
4.10242e-06
-7.23541e-07
-4.18769e-06
8.08811e-07
1.32947e-06
2.81111e-06
-4.14058e-06
-9.68737e-07
-6.3364e-07
1.60238e-06
-2.06472e-07
3.71002e-06
-3.50355e-06
-3.44044e-06
-5.57299e-07
3.99774e-06
-4.21129e-06
1.84779e-06
2.36351e-06
-3.65524e-06
3.44877e-06
-3.24617e-06
3.94597e-06
-6.99798e-07
-3.96793e-06
5.27488e-07
3.76148e-06
-2.94874e-06
-3.41652e-06
-6.39043e-07
4.05556e-06
-4.13194e-06
8.85762e-07
3.1666e-06
-3.97782e-06
8.11223e-07
1.77783e-08
-3.87401e-06
3.85623e-06
3.79105e-06
-3.8127e-06
2.16512e-08
-3.75588e-06
6.31888e-07
3.12399e-06
-5.07274e-06
8.20478e-07
4.25226e-06
3.56675e-06
-3.54897e-06
3.59849e-06
-2.42377e-07
2.33484e-06
3.26971e-06
-5.60455e-06
-1.15388e-06
4.37106e-06
-3.3499e-06
3.67999e-06
-3.30092e-07
-3.88133e-06
3.84557e-06
3.57634e-08
-1.61303e-06
2.9425e-06
3.47044e-06
3.02654e-08
-4.17162e-06
4.08686e-06
8.47543e-08
3.73834e-06
-5.71743e-07
-2.80604e-06
2.63521e-06
-4.84862e-06
8.19727e-07
3.6858e-06
3.55018e-07
-4.04081e-06
-2.86457e-06
-8.91311e-07
-5.25496e-07
-3.44811e-06
3.91224e-06
-4.6413e-07
-2.56957e-06
3.70766e-06
-1.13809e-06
3.72097e-06
-3.72097e-06
1.16877e-06
2.82193e-06
3.71284e-07
-3.19321e-06
1.65633e-06
8.04199e-07
-2.46053e-06
3.15168e-06
6.60918e-07
-3.8126e-06
3.04255e-06
-1.19476e-06
-1.76432e-06
-3.08429e-06
-3.67138e-08
3.28034e-06
-3.24362e-06
-4.04619e-06
4.04619e-06
-4.19082e-06
4.23329e-06
-4.24665e-08
1.68724e-07
3.11694e-06
-3.28566e-06
1.17111e-08
-3.81843e-06
3.80672e-06
3.54324e-06
-3.53153e-06
-3.86343e-06
4.46908e-07
-3.87363e-06
-2.97984e-07
-3.33175e-06
3.66105e-06
-3.29296e-07
3.68342e-07
3.18962e-06
-3.55797e-06
-3.91712e-06
3.76735e-06
1.49762e-07
3.81873e-06
-3.81873e-06
3.5497e-06
2.1509e-07
-2.33194e-06
-1.7726e-06
3.32544e-06
7.0113e-07
-4.02657e-06
-3.2628e-06
-6.18528e-07
2.89802e-06
2.24004e-06
-5.13806e-06
-4.48917e-06
2.87614e-06
-2.86651e-06
-1.62266e-06
3.95237e-06
-6.26936e-07
2.35616e-06
-6.99832e-07
3.20203e-06
3.64954e-07
-3.56698e-06
-3.94786e-06
-2.42965e-07
-5.59433e-07
-9.60707e-07
-3.08548e-06
4.2793e-06
-4.2793e-06
-2.83016e-06
-1.08695e-06
-2.56656e-07
-4.81609e-06
-3.6923e-06
3.67754e-06
1.47667e-08
1.32904e-07
-3.74062e-06
3.60772e-06
-4.11331e-07
3.61336e-06
3.69667e-06
9.4379e-08
-3.86137e-06
-6.01162e-07
-3.89834e-06
3.99721e-06
-9.88702e-08
4.07167e-06
-2.27851e-06
-1.79316e-06
3.65152e-06
-3.51862e-06
7.50519e-08
4.09697e-06
-2.08504e-06
-2.01193e-06
2.33007e-06
1.74161e-06
3.75846e-06
-3.75846e-06
-2.88302e-06
4.13537e-06
-1.25235e-06
-3.62261e-06
1.74504e-07
-4.95816e-07
-2.93365e-06
3.42947e-06
-3.3957e-06
1.32901e-07
-3.63823e-06
7.55211e-07
3.13857e-06
6.90661e-07
-3.82923e-06
-2.21372e-07
3.35994e-06
-3.27841e-06
3.78765e-06
-5.09239e-07
-3.48293e-06
1.33037e-07
2.40528e-06
1.69169e-06
3.62917e-06
-7.30803e-07
1.56042e-07
3.56493e-06
-3.13191e-06
-2.6379e-07
3.27393e-06
6.96817e-07
-3.97075e-06
-1.81042e-06
-1.56159e-06
3.37201e-06
2.38363e-06
-3.01857e-07
-2.08178e-06
-3.87401e-06
7.86696e-07
3.88193e-06
-4.66863e-06
-1.80026e-06
8.31528e-07
3.87375e-06
7.22224e-08
4.20224e-06
-2.17397e-06
-2.02826e-06
1.4069e-06
2.79534e-06
3.91942e-06
-6.45486e-07
4.78327e-06
-2.44843e-06
-3.5443e-06
1.07442e-08
3.53355e-06
-5.06926e-06
5.16436e-07
4.55283e-06
-5.8342e-08
-3.51947e-06
3.57781e-06
3.87059e-06
2.16275e-07
-2.98609e-06
2.94937e-06
-3.5624e-06
3.63387e-06
-7.14679e-08
3.60729e-06
-3.66564e-06
3.72276e-06
-3.72276e-06
3.66519e-06
1.06205e-07
3.67223e-06
-8.50302e-07
3.62227e-06
-3.45355e-06
-3.19129e-06
2.69547e-06
3.29857e-08
3.51714e-06
-3.55012e-06
4.13957e-06
-2.90034e-06
-1.23923e-06
-3.81843e-06
-5.52756e-08
4.30298e-08
-3.52843e-06
-3.53548e-06
2.03725e-07
4.04978e-08
3.52625e-06
3.41258e-06
-3.04423e-06
-3.51928e-06
2.40866e-07
3.57011e-06
-9.96688e-08
-1.27582e-07
3.10722e-06
-2.97963e-06
2.44639e-06
1.69318e-06
-3.65896e-06
7.86389e-07
2.87257e-06
3.73068e-06
-2.30209e-08
-4.93336e-06
4.47826e-07
4.48554e-06
-5.00588e-08
-3.50097e-06
3.55103e-06
2.32698e-06
5.66546e-08
2.22962e-07
3.50772e-06
3.47099e-06
2.90485e-07
3.58638e-06
-3.63643e-06
-3.73732e-06
-1.24051e-07
3.81266e-06
-4.09752e-06
2.84863e-07
-3.40812e-06
-1.36181e-07
-4.14817e-06
1.79821e-06
2.34996e-06
1.1596e-10
3.58579e-06
1.24226e-07
-3.37555e-06
3.92562e-06
-5.50067e-07
-3.71871e-06
3.20426e-06
5.14453e-07
-5.03105e-07
1.30026e-06
-7.97158e-07
-1.16652e-06
-2.96542e-06
-3.74062e-06
-2.95094e-08
3.57275e-06
1.09653e-06
3.03884e-06
-5.99672e-08
-3.63787e-06
-1.73667e-08
-7.72694e-08
-3.97642e-06
3.35972e-06
6.16696e-07
-2.3315e-07
2.96501e-06
5.84686e-07
5.81371e-06
-2.54401e-06
-1.22987e-06
-2.95781e-06
3.64622e-06
5.04442e-08
-3.12956e-06
1.31914e-06
-1.40611e-06
-2.21856e-06
3.62467e-06
-1.2551e-06
-2.93555e-06
-2.04039e-06
4.93841e-06
-3.76155e-06
1.23677e-07
-3.55075e-06
3.56427e-06
-1.35175e-08
-2.93211e-06
2.80453e-06
-4.28061e-08
-3.47995e-06
3.52276e-06
-3.82682e-06
6.52686e-08
3.19069e-06
-3.79663e-06
6.05939e-07
3.55513e-06
-3.59794e-06
3.17684e-06
-1.20242e-06
-1.97442e-06
-4.80593e-06
1.70238e-06
3.10355e-06
3.25706e-06
3.13047e-07
2.68992e-06
1.63747e-06
7.85541e-07
3.49376e-06
-9.33652e-07
-3.34565e-06
-3.87396e-06
3.83905e-06
3.49177e-08
-3.86321e-06
-1.07495e-08
-3.84391e-06
-1.9302e-08
1.22261e-08
1.0006e-06
-5.59492e-06
4.59433e-06
-4.15338e-06
4.94007e-06
3.27975e-06
-3.24676e-06
3.50522e-06
1.46301e-07
2.85735e-07
2.89111e-06
-3.51947e-06
-3.19088e-06
3.17623e-06
3.95233e-07
-3.57147e-06
-1.78616e-08
-7.5836e-07
5.5844e-06
-4.82604e-06
5.29694e-06
-3.81963e-06
-1.60785e-06
2.41205e-06
-1.01967e-06
-3.1285e-06
-2.77835e-06
-2.02758e-06
-3.51832e-06
-2.18997e-07
-3.54343e-06
3.54285e-06
5.83028e-10
-5.58885e-07
3.32548e-06
-2.76659e-06
-3.80569e-06
3.83246e-06
-2.67705e-08
-3.76582e-06
-3.98637e-08
-4.83829e-06
3.02395e-07
4.5359e-06
-3.38002e-06
-2.19258e-07
3.59928e-06
3.79214e-06
4.03201e-08
-6.73801e-07
-4.14318e-06
1.51145e-06
2.63173e-06
2.33974e-08
-2.19276e-06
-1.95042e-06
-5.17732e-08
-3.87853e-08
-3.45972e-06
3.49851e-06
-3.55729e-06
1.77268e-07
3.21497e-06
4.31248e-07
3.70514e-06
-3.54909e-06
3.52109e-06
-3.55988e-06
3.50662e-06
1.00673e-07
1.7245e-06
3.57244e-06
3.65435e-06
-6.89335e-07
-2.87554e-07
-4.78171e-06
-2.08486e-07
2.89002e-06
-2.68154e-06
-3.74782e-06
-1.80028e-08
-3.74723e-06
-5.89236e-10
3.77693e-06
-3.74988e-06
-2.70516e-08
3.7363e-06
4.06311e-08
-3.50097e-06
8.65233e-07
-1.18796e-06
3.22727e-07
-4.23241e-06
2.47807e-06
1.75434e-06
1.89321e-06
-3.79657e-06
1.90336e-06
-3.31443e-06
-3.08181e-07
-3.53155e-06
3.51402e-06
1.75322e-08
-3.67305e-06
3.54275e-06
1.30299e-07
-2.93419e-07
3.75893e-06
-3.46551e-06
-3.64669e-06
8.93974e-08
-4.04939e-06
5.04999e-06
-3.74579e-07
-3.28438e-06
-3.80708e-06
3.51366e-06
-2.98265e-06
-2.74097e-07
3.25675e-06
-2.79269e-06
3.71239e-06
2.39065e-08
-2.54042e-06
-6.80414e-07
7.54335e-07
-7.39208e-08
-3.48377e-08
1.36737e-07
-4.8311e-06
4.69437e-06
-2.70645e-06
-1.31269e-06
-3.76383e-06
3.6876e-06
7.62278e-08
-3.70623e-06
-5.7596e-08
-1.33191e-06
8.28809e-07
3.50014e-06
8.62367e-08
3.73599e-06
-6.19049e-07
3.70312e-06
-3.69919e-06
-3.93176e-09
-9.86918e-09
-3.433e-06
3.44287e-06
3.87756e-06
-2.78104e-06
-4.67556e-08
3.84078e-06
2.17083e-06
-6.01162e-06
3.8054e-06
-3.8054e-06
5.90252e-07
3.45594e-06
-1.34313e-06
-2.37784e-06
-3.03446e-06
3.65798e-06
-6.23523e-07
-4.02964e-07
-3.27008e-06
3.5034e-06
-3.51327e-06
-3.35522e-06
5.6164e-08
3.29905e-06
6.43838e-07
-3.40076e-06
2.75692e-06
-3.52126e-06
3.48452e-06
3.67444e-08
2.25008e-06
1.62749e-06
-1.10117e-07
-5.70297e-07
-2.11756e-06
-2.11485e-06
-8.12553e-07
-3.76007e-06
3.84515e-07
-3.47995e-06
3.15364e-06
6.59018e-07
-2.92617e-06
-3.28876e-06
3.06104e-07
-3.35544e-06
1.94933e-06
3.80724e-06
-3.09496e-06
-7.12288e-07
6.49914e-07
3.05522e-06
-2.69202e-06
-1.27591e-06
-3.72369e-06
3.72369e-06
3.7262e-06
-3.58368e-06
-1.42522e-07
2.14281e-07
-3.52871e-06
-2.98145e-06
3.37102e-06
-3.89571e-07
-1.18035e-06
5.46713e-07
3.47072e-06
-3.48771e-06
1.69864e-08
3.64837e-06
3.92299e-08
3.68471e-06
4.14919e-08
5.56528e-06
-3.55118e-06
-9.55041e-08
-3.11631e-06
2.55742e-06
3.49503e-06
6.01016e-08
3.67406e-06
-3.65378e-06
-2.02747e-08
-3.2171e-08
-5.08251e-08
3.84226e-07
-3.15093e-06
2.7667e-06
-1.09897e-07
-4.82346e-06
1.15374e-06
2.58037e-07
-3.23948e-06
-3.51319e-06
3.45953e-06
5.36594e-08
3.50484e-06
-3.14153e-07
-1.6358e-06
-2.1769e-06
-4.91174e-06
3.63838e-07
-1.97169e-06
-5.83837e-07
1.5803e-08
3.60988e-06
-3.21464e-06
-3.45972e-06
-3.46508e-06
9.03722e-08
3.3747e-06
4.89118e-06
6.9322e-07
2.82067e-06
1.41262e-06
3.41202e-06
-1.51881e-06
3.56205e-06
-2.02331e-07
8.1778e-06
-6.00697e-06
-5.59492e-06
-1.79339e-06
-1.92532e-06
-4.55331e-08
3.79918e-06
-3.55965e-06
-2.39532e-07
3.60239e-06
8.23219e-08
4.16418e-07
-3.45088e-06
-2.56084e-06
2.94506e-06
3.49059e-06
3.04973e-08
2.73958e-06
1.21279e-06
3.66257e-06
1.36606e-07
3.65988e-06
-3.60746e-06
-5.24242e-08
-1.64979e-06
-2.32803e-06
-1.65219e-07
3.36948e-06
6.27136e-08
-3.88145e-06
3.03448e-06
-2.39065e-06
-5.13966e-08
7.62036e-08
2.96281e-06
-3.21492e-06
2.52118e-07
5.41709e-07
3.11627e-06
4.9645e-06
-4.82776e-06
1.7274e-06
2.18484e-06
-3.50367e-06
3.46303e-06
4.06346e-08
-8.04615e-08
-2.03831e-06
1.11807e-06
9.20243e-07
-3.68096e-08
3.8064e-06
-3.8064e-06
4.30663e-06
-2.49817e-06
-1.80846e-06
-3.15065e-06
-5.32243e-07
2.65941e-06
1.26001e-06
3.6424e-06
2.01699e-08
-3.433e-06
3.40607e-06
2.17896e-08
-3.42786e-06
2.78757e-06
3.88145e-06
-3.85623e-06
9.777e-08
4.53094e-06
-4.01451e-06
3.50742e-06
-3.73318e-06
3.48487e-06
-7.88012e-08
3.14575e-06
-3.40457e-06
3.38682e-06
1.77527e-08
1.58334e-07
2.73306e-06
-2.8914e-06
-3.09652e-06
2.55871e-06
-2.31732e-07
3.23773e-06
4.4226e-07
-3.14127e-08
-2.99669e-06
-5.22587e-07
-4.48963e-06
2.83984e-06
5.84906e-09
-3.41397e-06
-3.63458e-06
-1.72498e-07
4.8666e-06
-2.62656e-06
3.49442e-08
-6.29636e-07
3.87043e-06
-3.24079e-06
-1.65372e-06
-3.84592e-07
3.39088e-06
-3.42703e-06
3.61524e-08
-3.50742e-06
3.48073e-06
1.50971e-06
2.15503e-06
-3.66474e-06
3.64572e-06
-6.82911e-07
3.02089e-07
3.23999e-06
3.57584e-06
3.49786e-07
3.90391e-07
4.74842e-07
-3.80672e-06
8.39593e-08
-3.02062e-06
3.43704e-06
-1.75022e-06
2.11406e-06
3.22587e-07
-3.17378e-06
2.85119e-06
-2.62303e-08
6.54118e-08
-3.16468e-06
-3.60218e-06
3.53587e-06
6.6305e-08
-3.45426e-06
3.59302e-07
2.25668e-06
2.04995e-06
-1.94439e-06
3.98516e-06
-2.04077e-06
3.99545e-06
-3.72973e-06
-2.65721e-07
1.00522e-07
2.45819e-06
-3.42854e-06
-3.65329e-08
3.47987e-06
4.99441e-09
1.71948e-06
-6.01415e-07
4.42924e-06
-3.98142e-06
3.17191e-06
4.8914e-07
1.99283e-07
-3.53278e-06
5.36095e-07
5.32685e-08
-3.07389e-06
3.9444e-06
-3.18919e-06
3.21593e-06
-1.95656e-07
-3.06189e-06
3.25754e-06
-3.46317e-06
3.60698e-06
-4.27149e-08
-5.24655e-06
4.20516e-07
-2.25946e-08
3.39743e-06
6.56025e-08
-3.20638e-06
-3.52064e-06
3.50624e-06
1.43949e-08
4.21771e-06
-2.4515e-06
-1.76621e-06
-2.95398e-06
-2.65633e-07
3.21962e-06
-7.83631e-09
-3.47948e-06
7.48619e-08
-3.7703e-07
3.71841e-06
-3.34138e-06
-3.40862e-06
3.42561e-06
-4.94819e-06
-7.21673e-07
-4.78543e-06
4.66534e-06
1.20094e-07
2.73019e-06
1.38624e-06
3.19505e-06
2.87144e-07
-3.48219e-06
3.39632e-06
-1.3925e-07
2.73726e-06
1.36515e-06
-2.42627e-06
7.72549e-07
-3.43408e-06
2.98225e-06
-3.39358e-06
-4.60981e-06
4.59313e-06
1.66824e-08
4.16183e-06
-3.34135e-06
3.39718e-06
-1.03572e-08
2.09037e-07
-3.16829e-06
2.95925e-06
-5.12164e-08
-4.55859e-06
4.11645e-06
-4.11645e-06
-1.8747e-06
3.53213e-06
-1.65743e-06
-3.39921e-06
3.39921e-06
3.47721e-06
-3.07384e-06
-4.03367e-07
3.22966e-06
7.67549e-07
3.62221e-06
-2.97229e-06
3.58287e-06
-4.00267e-08
-2.80315e-06
-4.48984e-07
3.25214e-06
-4.55376e-06
4.56933e-06
-1.55643e-08
4.20561e-06
-2.53219e-06
-1.67341e-06
6.13816e-07
3.00839e-06
-4.60142e-06
4.57834e-06
2.30807e-08
-1.18e-09
-3.36315e-08
4.54073e-06
-4.5071e-06
-4.58411e-06
4.58411e-06
-5.44896e-08
3.44537e-06
4.92e-06
-4.58598e-06
-3.34022e-07
-4.60434e-06
4.57071e-06
4.6002e-06
-4.57684e-06
-2.33603e-08
-3.3514e-06
-7.56387e-08
3.9212e-06
-5.24774e-08
4.56983e-06
-4.51735e-06
4.57124e-06
-4.57987e-06
8.62961e-09
-3.45588e-06
4.54738e-06
-6.64844e-09
-3.51674e-06
3.48544e-06
3.13003e-08
-4.54654e-06
4.56302e-06
-1.64811e-08
3.48234e-06
-3.39197e-06
-4.59217e-06
4.53969e-06
3.52236e-06
-1.12044e-06
1.67762e-06
2.19281e-06
-2.54548e-06
-1.94414e-06
-4.57626e-06
4.57626e-06
-4.59722e-06
-7.12343e-09
4.25555e-06
-7.80242e-07
-3.47531e-06
-2.99799e-06
2.03728e-06
1.14559e-07
4.55474e-06
-4.56889e-06
1.41489e-08
3.35221e-06
-3.3499e-06
-2.30574e-09
4.69664e-06
-4.57458e-06
-1.22058e-07
4.53093e-06
2.38052e-08
4.5226e-06
4.7228e-08
-9.39034e-09
-3.38982e-06
-4.19393e-06
2.30761e-06
1.88632e-06
-3.38506e-06
3.40685e-06
4.54537e-06
-1.44354e-08
4.76847e-07
3.0852e-06
2.44499e-06
-9.35278e-07
-4.58561e-06
-6.56358e-09
3.73942e-06
2.21868e-06
-3.78027e-06
-5.76614e-07
-4.66994e-06
3.4129e-06
-3.43331e-06
2.04084e-08
-1.58315e-07
-4.62712e-06
3.55369e-06
-3.96704e-08
3.95002e-06
-2.70167e-06
-1.24834e-06
-3.41997e-06
4.55234e-06
-4.55234e-06
3.25921e-06
4.37776e-08
-3.30298e-06
3.50683e-06
-4.56192e-06
4.55591e-06
6.00761e-09
4.52951e-06
-4.57328e-06
4.37736e-08
2.88075e-06
-3.81441e-06
-1.22061e-08
-4.52981e-06
4.54201e-06
4.51934e-06
-4.53154e-06
-1.50767e-07
4.8161e-06
-3.61584e-06
3.91823e-06
-4.09725e-06
2.84216e-06
-7.20043e-08
4.66513e-06
3.92011e-07
2.02004e-06
4.0299e-08
4.21525e-06
-1.26415e-08
3.64795e-06
-3.63531e-06
-3.11605e-08
-4.57279e-06
-2.86379e-08
3.75504e-06
-3.76591e-07
-3.37845e-06
-4.54242e-06
4.54242e-06
2.66549e-06
-2.2942e-06
-4.58004e-06
4.568e-06
1.20377e-08
3.49814e-06
-3.49814e-06
3.4046e-06
-5.23964e-08
4.54863e-06
-4.55594e-06
7.31116e-09
-4.3922e-06
1.20133e-06
4.01587e-09
-3.37877e-06
3.37476e-06
3.66444e-06
-3.05772e-08
4.55806e-06
4.21444e-08
2.76534e-06
4.7173e-07
-3.23707e-06
4.5721e-06
-2.47184e-08
3.553e-06
-3.553e-06
4.54307e-06
-4.52722e-06
-1.58462e-08
-3.47466e-06
3.44838e-06
2.62868e-08
4.57772e-06
-4.56387e-06
-1.38475e-08
-4.54999e-06
4.54999e-06
6.79707e-07
3.18666e-06
1.07769e-07
-3.29443e-06
-4.58041e-06
4.56846e-06
1.19529e-08
-1.7029e-08
-3.43051e-06
3.41045e-06
2.44411e-09
4.25687e-06
-8.02957e-07
-3.45392e-06
2.94142e-06
4.53152e-06
-4.54405e-06
1.25315e-08
3.50297e-06
3.74025e-06
5.27282e-08
3.20648e-06
4.64671e-06
-8.8658e-08
4.51655e-06
1.49765e-08
3.32437e-06
-3.32437e-06
-1.75022e-06
4.5955e-06
-4.55932e-06
-1.3962e-08
4.55706e-06
-4.53993e-06
-1.71351e-08
8.93612e-08
-4.6436e-06
4.55423e-06
4.77875e-07
-4.59433e-06
-4.57213e-06
4.56422e-06
7.90538e-09
3.30109e-06
-3.299e-06
-2.09145e-09
3.47721e-06
-3.0686e-06
3.0686e-06
4.52575e-06
-9.20833e-09
-3.39301e-06
-3.16829e-06
3.19505e-06
3.52132e-06
-3.68017e-08
-1.0356e-08
3.6087e-07
-4.49475e-06
4.55624e-06
-4.55776e-06
1.51896e-09
1.08452e-07
3.19264e-06
1.05354e-07
3.64969e-06
3.43045e-06
-2.58476e-08
-4.56202e-06
4.55665e-06
5.3633e-09
4.52176e-06
-4.53453e-06
1.27763e-08
-4.55779e-06
-2.22514e-08
4.5455e-06
-4.5335e-06
-1.20036e-08
3.43246e-06
6.56805e-08
4.54821e-06
1.97972e-08
-5.77908e-09
4.53813e-06
1.85273e-08
-6.92424e-10
-3.36254e-06
-4.60726e-06
4.86704e-08
-3.40968e-06
3.40968e-06
4.31781e-08
4.21369e-06
-3.46509e-06
6.61939e-07
2.39915e-08
4.54724e-06
1.89985e-07
-3.27959e-06
3.08961e-06
3.18363e-08
4.55227e-06
4.34339e-06
-4.73675e-06
3.42998e-06
1.23022e-07
4.51934e-06
-3.4782e-08
3.22144e-06
-3.31495e-06
1.59573e-08
3.26702e-06
-5.01679e-07
-4.53064e-06
4.53064e-06
-4.55486e-06
-2.55571e-08
3.07384e-06
-3.18437e-06
1.10529e-07
-4.55227e-06
3.35455e-06
-3.35054e-06
4.54597e-06
2.24868e-08
-4.54803e-06
-4.04657e-06
2.8167e-06
-4.56759e-06
4.55995e-06
7.63378e-09
3.10378e-06
2.92537e-07
3.37877e-06
2.04335e-08
-4.51589e-06
4.54698e-06
-3.10903e-08
-3.43207e-06
3.40174e-06
3.03332e-08
-4.53034e-06
1.44489e-08
3.41693e-06
-6.47931e-09
1.88206e-07
-3.53182e-06
3.34361e-06
4.52935e-06
-4.54947e-06
2.01229e-08
3.68436e-06
-3.85686e-06
4.52883e-06
-4.52833e-06
-5.0016e-10
-2.89271e-06
2.89271e-06
-3.56297e-06
3.56297e-06
-4.5236e-06
-6.73856e-09
-2.11406e-06
2.50607e-06
-4.53661e-06
4.52993e-06
6.68482e-09
3.55442e-08
4.54072e-06
2.82866e-06
-2.50607e-06
-2.82866e-06
2.98699e-06
3.00205e-06
-3.45103e-06
4.14645e-06
-2.45591e-06
-1.69053e-06
-4.55281e-06
-1.93193e-08
-6.55026e-07
-2.98699e-06
3.64202e-06
4.54708e-06
1.71423e-08
-3.44541e-06
3.19203e-06
4.5602e-06
-4.55097e-06
-9.23204e-09
-4.53334e-06
-3.41456e-06
3.43136e-06
-1.0699e-07
-1.21827e-08
4.55755e-06
4.53832e-06
-3.37476e-06
-4.64659e-06
-2.7277e-06
3.48219e-06
-7.54496e-07
-4.51342e-06
-1.6385e-08
4.53256e-06
5.56447e-09
2.64306e-06
-2.70076e-06
5.77005e-08
5.2296e-09
3.18437e-06
-3.31279e-06
1.28422e-07
2.0949e-06
2.1228e-06
-4.55077e-06
-1.68168e-08
-3.44764e-06
4.51263e-06
-4.50884e-06
-3.79055e-09
4.54529e-06
1.46629e-08
-4.5585e-06
4.55359e-06
4.91356e-09
3.48512e-06
3.43246e-06
-4.52423e-06
4.51428e-06
9.95511e-09
4.55615e-06
-4.55413e-06
-2.02647e-09
-3.38889e-06
3.42998e-06
4.5221e-06
-4.5221e-06
1.8074e-08
4.56027e-06
-2.85523e-06
-6.09858e-07
4.53153e-06
-2.17846e-09
-5.8147e-07
3.09473e-06
-2.51326e-06
4.51994e-06
-4.51602e-06
-3.91049e-09
1.38683e-08
4.53847e-06
4.5117e-06
-4.51574e-06
4.04555e-09
-4.56452e-06
-4.54805e-06
-2.74007e-06
3.94978e-09
4.55196e-06
-4.85032e-09
-4.53601e-06
4.54086e-06
-4.52238e-06
4.51248e-06
9.89853e-09
-4.55058e-06
-7.92129e-09
-3.44447e-06
-3.32711e-06
1.21582e-08
4.5459e-06
7.68648e-09
-4.51827e-06
4.51636e-06
1.91072e-09
-4.52136e-06
1.70552e-08
4.50431e-06
4.54923e-06
1.09647e-08
-4.53514e-06
-1.583e-08
-3.30867e-06
-1.56924e-08
4.54701e-06
-4.54979e-06
2.78383e-09
4.52026e-06
-4.52511e-06
-4.52935e-06
4.52309e-06
6.25543e-09
4.51805e-06
-4.51439e-06
-3.65884e-09
3.40678e-06
2.9011e-09
4.54849e-06
7.65986e-09
-4.54212e-06
-1.20031e-08
-4.55877e-06
3.43136e-06
-4.52048e-06
4.51145e-06
9.03739e-09
3.0006e-06
-3.19625e-06
-4.50773e-06
4.52467e-06
-1.6938e-08
4.52174e-06
-4.5285e-06
6.76507e-09
-1.11141e-08
-4.5462e-06
-4.38192e-09
-1.18181e-08
-4.01394e-06
2.84742e-06
-7.7746e-09
4.52026e-06
-7.52013e-09
-4.86859e-09
-4.55003e-06
3.83037e-09
1.74124e-06
3.8217e-06
-5.56294e-06
-9.41523e-07
4.547e-06
5.36035e-12
-4.53847e-06
8.4258e-09
4.534e-06
-4.54116e-06
-8.63373e-09
-3.41801e-06
-4.55456e-06
4.52839e-09
1.59973e-08
4.53263e-06
-6.91654e-10
2.15943e-08
-4.47756e-06
4.45597e-06
4.55331e-06
-4.551e-06
-2.30949e-09
-3.47909e-06
6.23858e-07
4.54454e-06
-4.53659e-06
-7.95228e-09
-4.54752e-06
-3.37227e-06
-1.77853e-07
4.5171e-06
-4.51352e-06
-3.57614e-09
2.37891e-08
-4.48181e-06
4.45802e-06
-4.55216e-06
4.54368e-06
8.48441e-09
-3.44191e-06
3.41324e-06
2.86675e-08
3.96581e-09
-4.5521e-06
-2.45419e-09
-3.46236e-06
7.18473e-07
2.74389e-06
-4.54618e-06
-5.97844e-09
4.55179e-06
1.52174e-09
-4.54433e-06
-6.6719e-09
-1.81742e-08
-4.55242e-06
3.1416e-10
-3.27396e-06
-3.79779e-07
3.65374e-06
2.61721e-06
1.91405e-08
-4.534e-06
3.41422e-06
-1.24791e-08
-4.51689e-06
4.51689e-06
-8.73867e-09
4.54962e-06
2.17107e-09
-3.61147e-09
7.10995e-09
7.33358e-09
4.55133e-06
-1.7162e-09
2.67586e-09
4.55014e-06
-4.55018e-06
4.3296e-11
3.28405e-06
-3.28405e-06
-4.54075e-06
4.53098e-06
9.77391e-09
4.52446e-06
-4.51983e-06
-4.63081e-09
-6.40213e-09
4.54849e-06
2.84084e-09
4.5487e-06
1.43987e-09
-1.69177e-09
4.54908e-06
4.54472e-06
-4.54722e-06
2.50189e-09
-4.58859e-06
-4.53018e-06
-1.05724e-08
3.50244e-06
-4.29098e-08
4.54066e-06
4.05357e-09
3.8014e-08
4.5441e-06
-4.53912e-06
-4.98009e-09
-3.24571e-06
3.24571e-06
2.55469e-08
4.52445e-06
-4.51611e-06
4.52338e-06
-7.27182e-09
4.54314e-06
9.58492e-10
3.29804e-08
3.39747e-06
4.53776e-06
-4.53603e-06
-1.73591e-09
-4.50194e-06
-1.41671e-08
4.52503e-06
-4.52873e-06
3.70009e-09
4.53482e-06
2.94115e-09
4.5432e-06
5.50002e-09
-4.50035e-08
-4.49101e-06
-7.00674e-09
-4.00335e-07
-3.05054e-06
4.51785e-06
-4.52224e-06
4.38317e-09
1.34886e-07
3.14916e-06
4.53719e-06
-4.53292e-06
-4.26994e-09
-4.01615e-09
-7.80938e-08
-3.77183e-06
3.84993e-06
-3.28635e-06
3.32392e-06
-3.7571e-08
-4.49662e-06
4.49808e-06
-1.45558e-09
4.53194e-06
5.25247e-09
-4.51851e-06
-2.8236e-06
4.56483e-06
4.53374e-06
-4.52729e-06
-6.45263e-09
-4.53812e-06
4.53823e-06
-1.10688e-10
4.52516e-06
-4.52107e-06
-4.09315e-09
-4.40448e-07
-3.88137e-06
4.32181e-06
4.52906e-06
4.67729e-09
-4.5001e-06
3.48102e-09
4.5344e-06
-4.5286e-06
-5.80141e-09
3.40678e-06
-3.48894e-06
3.48894e-06
4.53271e-06
-4.52416e-06
-8.54998e-09
-8.78485e-09
4.53454e-06
-7.14199e-09
-3.41141e-06
4.52629e-06
6.4194e-09
-4.5377e-06
-8.48778e-09
-4.49316e-06
4.49557e-06
-2.40951e-09
4.5382e-06
2.46341e-09
7.68918e-08
4.49244e-06
-9.2134e-10
4.53399e-06
1.15142e-08
3.39628e-06
1.79401e-08
5.35883e-10
-4.49763e-06
4.47487e-09
3.46139e-07
1.26249e-08
1.46165e-07
4.52093e-06
-4.52517e-06
4.23452e-09
-4.48839e-06
4.49363e-06
-5.24059e-09
8.10457e-08
-3.40133e-06
3.32028e-06
6.07951e-07
-3.54256e-06
2.93461e-06
1.29702e-06
3.21271e-06
-3.21271e-06
4.51778e-06
-4.51778e-06
-3.71579e-06
2.07144e-09
-4.5263e-06
3.4669e-06
4.53293e-06
1.02125e-08
-8.542e-07
-1.59e-06
2.4442e-06
-4.49498e-06
6.58507e-09
-4.49741e-06
-1.4619e-07
1.92201e-06
-3.17088e-06
1.24887e-06
-3.09948e-09
3.07889e-08
4.49388e-06
1.07692e-08
3.40617e-06
-4.53942e-06
9.56412e-09
4.52107e-06
2.88408e-06
-3.51915e-06
6.35074e-07
2.93425e-06
-1.01224e-06
-5.66375e-09
-4.51672e-06
4.54012e-06
-4.50933e-06
-4.52705e-06
-4.48246e-06
4.4782e-06
4.26162e-09
1.02261e-09
4.5289e-06
4.51308e-06
4.70088e-09
4.12397e-06
-2.73764e-06
-1.38633e-06
-1.54374e-08
3.44541e-06
4.52764e-06
7.17914e-09
4.12258e-06
-4.56303e-06
3.07124e-08
4.49375e-06
-5.34758e-09
-4.51514e-06
-4.48774e-06
5.27995e-09
-3.29591e-06
9.56137e-09
3.46373e-06
-2.77743e-06
-6.86306e-07
4.505e-06
-4.50538e-06
3.78942e-10
-5.27937e-09
1.30026e-06
-1.82731e-06
-1.7113e-06
3.53861e-06
4.51343e-06
-4.52037e-06
6.93363e-09
3.59273e-06
-3.54895e-06
-1.20053e-08
3.44447e-06
-2.95769e-06
2.10349e-06
4.50887e-06
-4.51339e-06
4.52093e-09
4.53483e-06
-4.50412e-06
-3.39724e-06
1.13193e-07
-3.4103e-06
3.40576e-06
4.54354e-09
3.31279e-06
-3.39088e-06
7.20894e-08
4.49093e-06
-3.44232e-06
3.33657e-06
-1.21598e-07
4.52775e-06
-4.52226e-06
-5.48924e-09
3.52496e-06
-3.36668e-06
-1.58278e-07
4.51308e-06
-2.73029e-09
-4.51554e-06
-3.33801e-06
1.08928e-08
4.18714e-07
2.56407e-06
-2.98279e-06
-4.47674e-06
4.47187e-06
4.86447e-09
4.5059e-06
1.58377e-08
-2.85327e-06
-5.97763e-07
3.28999e-08
4.49226e-06
4.5202e-06
-4.53079e-06
1.05949e-08
4.5147e-06
-8.32819e-09
-4.50051e-06
-3.52724e-06
-5.95016e-07
4.52253e-06
9.40874e-09
4.80923e-06
-9.87536e-07
-2.75127e-08
4.51812e-06
-4.49061e-06
4.51602e-06
4.17661e-09
-4.48315e-06
6.41338e-09
-4.49599e-06
-3.23354e-08
-8.60024e-09
4.45769e-06
-4.44909e-06
5.87832e-09
4.51622e-06
4.53543e-06
-4.50253e-06
-4.52107e-06
-1.62856e-08
3.44764e-06
-4.75611e-09
3.41912e-06
-1.75482e-07
-3.24363e-06
4.61975e-08
3.37292e-06
-4.46407e-06
4.45547e-06
-4.52038e-06
-9.80133e-09
2.86954e-06
5.9419e-07
-1.70416e-08
3.49608e-06
-3.47904e-06
-2.89691e-06
-2.42261e-06
2.84132e-06
-3.77786e-06
4.67903e-07
3.30996e-06
4.51427e-06
3.45723e-09
-4.51948e-06
4.49968e-08
4.49513e-06
4.50752e-06
-4.5082e-06
6.72148e-10
4.51738e-06
-4.50392e-06
-1.34608e-08
-4.52347e-06
3.00464e-09
-6.5008e-09
-3.41358e-06
3.42008e-06
6.72306e-10
4.52242e-06
-3.13727e-06
9.18711e-07
-4.5176e-06
4.51504e-06
2.55835e-09
-4.47044e-06
4.4651e-06
5.34136e-09
4.44177e-08
3.69232e-06
-3.58456e-06
2.70846e-06
-6.53969e-08
-2.35684e-08
4.52066e-06
-4.49709e-06
-4.03028e-06
2.20297e-06
4.5127e-06
3.9972e-09
-4.51838e-06
4.51738e-06
1.16823e-08
-4.22152e-06
4.20201e-08
4.1795e-06
7.10309e-09
-4.47755e-06
4.50849e-06
-4.50375e-06
-4.73574e-09
-1.43379e-07
4.53516e-06
-4.39178e-06
-6.77318e-09
-9.27868e-07
4.24436e-06
-3.31649e-06
-3.39724e-06
-3.76077e-06
4.51133e-06
-2.45996e-09
3.97239e-08
4.4951e-06
4.39908e-06
4.55411e-06
-4.55088e-06
-3.22925e-09
5.3413e-10
-3.41995e-06
3.41942e-06
-4.51394e-06
4.51087e-06
3.06993e-09
9.13058e-08
-3.39998e-06
3.30867e-06
4.5199e-06
-4.51804e-06
-1.8602e-09
-3.49962e-06
3.48258e-06
4.50661e-06
-4.50314e-06
-3.47673e-09
1.26588e-08
4.50472e-06
-5.06563e-08
4.53058e-06
-4.51679e-06
4.52966e-08
-3.33096e-06
4.51661e-06
-4.51582e-06
-7.91064e-10
4.51437e-06
2.63521e-09
-4.51616e-06
4.49124e-06
9.51392e-09
-4.50076e-06
1.081e-09
4.51717e-06
-4.50451e-06
-1.08248e-08
-3.42048e-06
3.4313e-06
2.42604e-06
-3.56908e-06
1.14305e-06
-7.58039e-07
-3.46348e-06
-3.31842e-06
-7.44839e-07
-2.9112e-06
-4.51163e-06
2.60874e-08
4.48555e-06
-3.44125e-06
3.42048e-06
2.07674e-08
-1.04724e-06
-2.76717e-06
-4.50925e-06
4.02545e-06
-4.49993e-06
4.50788e-06
-7.94932e-09
-3.76049e-06
3.7332e-07
3.38717e-06
3.5922e-06
-2.76006e-06
-8.32138e-07
-4.51575e-06
9.08343e-09
4.50666e-06
3.42631e-06
-3.38328e-06
9.4729e-09
4.49901e-06
-4.51622e-06
4.59903e-09
4.51229e-06
4.51158e-06
1.47019e-08
-7.54905e-10
-4.51499e-06
-1.46858e-08
-4.50291e-06
-4.50447e-06
3.42236e-06
-3.38034e-06
-1.92085e-08
9.6495e-07
2.98507e-06
-3.08783e-06
3.08783e-06
3.92677e-08
4.49616e-06
-5.11866e-06
-4.16418e-06
4.16471e-06
4.51773e-06
3.41981e-06
-3.39474e-06
-4.51084e-06
4.49615e-06
-3.81323e-06
3.90453e-06
4.50766e-06
-4.50372e-06
-3.9414e-09
5.48481e-09
4.51237e-06
-4.56512e-06
3.43473e-06
-3.44556e-06
-4.50953e-06
7.58084e-09
1.69897e-06
4.52058e-06
-4.51509e-06
-5.49207e-09
-4.51764e-06
4.50788e-06
-4.50412e-06
-3.75979e-09
-4.50713e-06
-4.49884e-09
4.49752e-06
-4.48374e-06
-3.44811e-06
4.14493e-06
4.50399e-06
-4.50252e-06
-1.46469e-09
-7.95943e-09
4.4992e-06
-3.44125e-06
2.98287e-06
-3.23247e-06
2.496e-07
-5.55057e-06
5.55057e-06
4.51561e-06
4.51648e-06
-1.14475e-08
7.59257e-09
-4.51511e-06
4.53089e-06
-1.57857e-08
4.50652e-06
-4.50274e-06
-3.7777e-09
-3.73942e-06
3.56157e-06
1.39713e-08
4.50415e-06
-4.51567e-06
1.22168e-08
4.50346e-06
-4.50242e-06
4.51215e-06
-4.50611e-06
-3.45821e-06
-4.51193e-06
1.51022e-08
4.49683e-06
-3.46305e-06
-9.77222e-09
3.37947e-06
-3.40479e-06
2.53193e-08
4.5006e-06
-4.5044e-06
3.79346e-09
8.35641e-08
-4.51186e-06
4.50437e-06
7.49484e-09
4.5091e-06
-3.30643e-06
-3.28341e-06
-5.45994e-08
4.51481e-06
-4.51481e-06
-2.29552e-08
3.42974e-06
-4.51229e-06
4.50568e-06
-4.50191e-06
-3.77016e-09
4.51408e-06
-2.51933e-08
-4.50831e-06
-3.35666e-06
-4.15177e-07
-3.44315e-06
2.69652e-06
-3.01198e-06
3.15464e-07
-6.74812e-07
-2.91294e-06
3.58775e-06
4.49737e-06
-4.48544e-06
2.91739e-06
-3.40133e-06
-9.74919e-09
-4.506e-06
4.50811e-06
-4.50437e-06
-3.74073e-09
3.46342e-06
-3.48079e-06
-9.51727e-07
-6.29647e-07
1.58137e-06
-3.59241e-06
3.62267e-06
3.47593e-06
-3.42974e-06
-1.35573e-08
-3.37086e-06
3.38441e-06
-1.65813e-08
-3.34482e-06
3.3614e-06
1.13001e-08
-3.50619e-06
3.49489e-06
3.20848e-08
-3.52022e-06
3.48813e-06
1.62858e-08
-3.44889e-06
3.43261e-06
-6.46316e-09
-3.37575e-06
3.38221e-06
-7.23635e-09
-3.37295e-06
3.38019e-06
2.02951e-06
-1.36764e-06
-6.61876e-07
2.9942e-06
2.20569e-08
4.4986e-06
3.30014e-06
-3.31996e-06
1.98249e-08
1.05993e-08
-4.50632e-06
4.49572e-06
4.51802e-06
-4.51802e-06
4.45818e-06
-9.58219e-10
-4.45722e-06
-1.5091e-08
-4.49575e-06
4.50534e-06
-4.50142e-06
-3.92614e-09
-2.80042e-06
-3.67669e-06
-8.37945e-08
2.95249e-06
5.72472e-07
4.51443e-06
-4.5083e-06
-6.12753e-09
-3.43634e-06
3.57148e-06
1.49852e-08
4.50219e-06
-2.47739e-06
-1.55288e-06
3.39985e-08
3.23408e-06
-3.26808e-06
-2.3094e-06
-3.91368e-07
-7.74879e-07
-4.79396e-07
1.25427e-06
3.39019e-06
3.39071e-06
3.53864e-06
3.53891e-06
3.51427e-06
3.46854e-06
-1.58526e-08
-3.39873e-06
3.41459e-06
3.401e-06
-4.72663e-09
-1.33906e-06
4.5068e-06
-4.4962e-06
-1.11531e-07
3.62519e-06
-4.52033e-06
-3.08565e-06
3.81593e-06
4.45238e-06
3.65987e-09
-4.45604e-06
4.52397e-06
-9.16149e-09
-4.51422e-06
1.6233e-08
4.49798e-06
-3.40454e-06
-3.41358e-06
3.41281e-06
-3.42866e-06
-3.10612e-06
3.75105e-06
-6.44929e-07
-8.0758e-09
-4.50386e-06
2.35433e-06
-2.9358e-06
7.43992e-09
-4.51119e-06
-4.50586e-06
-1.19843e-06
-1.75926e-06
-4.4978e-06
-8.5245e-09
3.45334e-06
1.07779e-06
2.62723e-06
4.50097e-06
-4.4975e-06
-3.47206e-09
3.43052e-06
-2.27155e-06
-1.15897e-06
-1.63383e-06
8.58948e-07
-1.89396e-06
4.09694e-06
-1.6418e-06
3.41277e-06
-1.77097e-06
1.46052e-09
4.51197e-06
-4.4811e-06
4.5041e-06
-4.50673e-06
2.62798e-09
-2.55087e-06
1.08761e-06
1.46326e-06
-1.50401e-08
-3.39778e-06
3.41282e-06
4.71756e-06
-2.08798e-06
-2.62958e-06
3.31171e-09
4.45486e-06
-9.80656e-07
-1.57021e-06
-3.29158e-06
3.32558e-06
2.80846e-06
1.8574e-07
-3.27605e-06
-6.92717e-09
-3.40232e-06
3.40925e-06
3.51418e-06
-3.40573e-06
-2.0922e-06
-7.93535e-07
2.88574e-06
-4.49725e-06
4.49855e-06
-1.2996e-09
-3.32514e-06
3.37043e-06
4.50219e-06
-4.50512e-06
-3.01018e-06
-7.76447e-08
-4.53573e-06
4.51859e-06
-2.34829e-06
3.39644e-09
4.50448e-06
3.92848e-06
-2.17113e-06
-1.75735e-06
3.32496e-06
-6.28442e-07
3.71527e-06
-4.81187e-07
3.40751e-06
-3.42255e-06
4.4961e-06
-4.49628e-06
1.77753e-10
3.41094e-06
-3.41787e-06
4.13382e-09
-4.49376e-06
4.48963e-06
-1.89544e-06
-4.52855e-07
9.20459e-09
-3.45732e-06