/*--------------------------------*- C++ -*----------------------------------*\
  =========                 |
  \\      /  F ield         | OpenFOAM: The Open Source CFD Toolbox
   \\    /   O peration     | Website:  https://openfoam.org
    \\  /    A nd           | Version:  12
     \\/     M anipulation  |
\*---------------------------------------------------------------------------*/
FoamFile
{
    format      ascii;
    class       volVectorField;
    location    "0.2";
    object      U;
}
// * * * * * * * * * * * * * * * * * * * * * * * * * * * * * * * * * * * * * //

dimensions      [0 1 -1 0 0 0 0];

internalField   nonuniform List<vector> 
4428
(
(0.00152154 0.000577341 1.01428e-16)
(-0.00154076 0.000635807 -9.0382e-17)
(-0.00139054 0.000636541 0)
(-0.00144926 0.000611336 0)
(0.00139422 0.00115523 8.16385e-17)
(0.0014424 0.00118472 3.22027e-21)
(-0.00138506 0.000792957 0)
(-0.0015546 0.000554404 1.46409e-16)
(0.0014923 0.000608853 -2.49063e-16)
(0.00153887 0.000448047 9.95367e-17)
(-0.00141145 0.000492455 -1.73328e-16)
(0.00142773 0.000599181 -1.76861e-16)
(-0.00159646 0.000339505 -2.03656e-16)
(-0.00049854 0.0017884 -9.58146e-17)
(0.00149819 0.000582451 0)
(0.00136639 0.000503204 0)
(0.00154507 0.000555205 0)
(-0.00141234 0.000491008 0)
(-0.00160601 0.000338056 0)
(0.00151379 0.000584293 0)
(0.000538745 0.000442241 -4.48033e-16)
(-0.00153389 0.000588361 -1.777e-16)
(-0.00144831 0.000615447 0)
(-0.00157492 0.000539936 0)
(-0.00152678 0.000582664 2.26615e-17)
(-0.00144856 0.000537742 0)
(-0.00146386 0.000773637 1.03355e-16)
(0.00147036 0.000478947 2.07801e-16)
(0.0013721 0.000675564 0)
(-0.00161489 0.000373284 0)
(0.00149329 0.000368585 0)
(-0.00155158 0.00058645 -1.84202e-16)
(0.00151924 0.000483067 -9.00186e-17)
(-0.00157559 0.000764249 -2.77419e-16)
(-1.15136e-05 0.00207052 4.69766e-17)
(-0.00154756 0.000603312 1.9986e-16)
(-0.00151659 0.000762708 -4.42942e-21)
(0.00140912 0.00189923 1.27041e-17)
(-0.000227888 0.00179421 -2.6223e-17)
(-0.00145216 0.000636826 0)
(0.00152619 0.000549638 0)
(0.001389 0.000447512 0)
(0.00145512 0.00049597 9.24309e-17)
(-0.00158116 0.000508065 1.66056e-16)
(0.00151882 0.000482559 0)
(0.00124138 0.000464265 0)
(0.00145523 0.00139193 -9.97824e-17)
(-0.00144813 0.000702071 2.03141e-16)
(-0.0014701 0.000617077 2.24457e-16)
(-0.00151504 0.000666377 0)
(0.00151835 0.000635337 0)
(0.00136148 0.000650581 1.88121e-16)
(0.00154909 0.000443579 -9.13175e-17)
(0.00138048 0.0006681 0)
(0.00141002 0.00059663 -1.39782e-17)
(0.000912416 0.000436171 0)
(0.00135044 0.000641934 -9.29917e-17)
(-0.00148447 0.000486563 0)
(0.00126691 0.00135815 1.82958e-16)
(0.0014859 0.000510887 -1.82009e-16)
(0.00155374 0.000597692 1.67095e-16)
(-0.00155161 0.000494183 0)
(0.00135377 0.000539185 2.79949e-16)
(-0.00154803 0.000583685 9.26972e-17)
(-0.00154417 0.000604529 0)
(0.00142335 0.000625617 0)
(-0.00157916 0.000516955 1.73156e-16)
(-0.00146114 0.000623105 -1.85818e-16)
(0.00147029 0.000524394 -1.82183e-16)
(-0.00149625 0.000651339 -3.61905e-16)
(-0.00158528 0.000495261 -9.16122e-17)
(0.00149286 0.000679544 2.12651e-16)
(0.0016159 0.000705476 5.80498e-17)
(-0.0014374 0.000598158 4.46948e-17)
(0.00151527 0.000529949 1.96647e-16)
(-2.67322e-05 0.00204852 -1.83292e-16)
(0.00154772 0.000708626 0)
(0.00159292 0.000620123 0)
(-0.00139919 0.000799055 -1.18143e-16)
(0.00108907 0.000516658 -4.35601e-21)
(0.00135879 0.000696998 -1.97537e-16)
(-0.00157321 0.000497927 0)
(0.00146058 0.000698512 -1.81062e-16)
(0.00147096 0.000609755 -1.72064e-16)
(0.00154644 0.000552459 3.18302e-16)
(-0.00168116 0.000535747 -2.54686e-16)
(-0.000194994 0.00230194 1.15141e-16)
(-0.0015714 0.000575169 0)
(-0.00154405 0.000590103 -9.60331e-17)
(0.0014127 0.000619846 2.0474e-17)
(0.00151686 0.00045624 8.36642e-17)
(0.00155536 0.000556758 -1.59367e-16)
(-0.001561 0.000621098 0)
(-0.00154242 0.000573927 0)
(-0.0015442 0.000605297 9.81683e-17)
(-0.0015006 0.000626677 1.67118e-16)
(0.00152554 0.000606066 1.13529e-16)
(-0.00156424 0.000593798 -1.19901e-16)
(-0.00158719 0.000491019 9.28697e-17)
(0.00143213 0.000767566 0)
(0.00143891 0.000653442 -2.25139e-17)
(0.00148594 0.000582251 0)
(0.00152328 0.00053725 0)
(0.00137699 0.000515768 -1.87985e-16)
(0.00133625 0.000624988 -1.03701e-16)
(0.00140201 0.00067834 2.49533e-21)
(0.00148284 0.000610409 1.90324e-16)
(-0.00151981 0.000726486 -1.22454e-16)
(0.00152608 0.000605217 -1.20821e-16)
(0.00145405 0.000713705 0)
(0.00148349 0.00049382 1.64694e-16)
(0.00149207 0.00057324 -1.94802e-16)
(-0.00143678 0.000590275 2.64622e-21)
(0.00141874 0.000538455 1.65963e-16)
(-0.000857495 0.000539723 1.15541e-16)
(-0.00158148 0.000482014 1.80231e-16)
(-0.000344771 0.00199285 0)
(0.000615377 0.000479606 5.24744e-17)
(-0.00159995 0.000531364 8.87643e-17)
(0.00159271 0.000617086 -1.12859e-16)
(0.00157938 0.000615586 2.11528e-16)
(-0.00140072 0.000804969 2.41274e-16)
(0.00103207 0.00168876 -1.96894e-16)
(0.00150668 0.000488018 -3.03616e-16)
(-3.4419e-06 0.00207093 1.78757e-16)
(-0.00154922 0.000583731 0)
(-0.00157185 0.00052913 -2.72255e-16)
(0.0014299 0.000595914 9.95081e-17)
(-0.00154501 0.000629716 -3.04098e-16)
(-0.00154683 0.000602268 9.66759e-17)
(-0.00158407 0.000499588 -1.87131e-16)
(-0.0015169 0.000625096 0)
(0.00152864 0.000610818 2.24124e-16)
(0.00146546 0.00054836 0)
(0.00148624 0.000579835 0)
(0.00158828 0.000685983 6.54133e-21)
(0.00156045 0.000651752 -2.43667e-16)
(-0.00157812 0.000488201 -1.82387e-16)
(-0.00155034 0.000598944 -1.83549e-16)
(-0.00153538 0.000622343 1.43947e-16)
(-0.00152629 0.000734898 -1.23705e-16)
(-0.00155177 0.000560835 -9.67476e-17)
(0.001463 0.000586446 0)
(0.00147136 0.000599194 -1.99427e-16)
(0.00154124 0.000577997 0)
(0.00145253 0.000558407 9.67639e-17)
(0.00155963 0.000700322 1.28473e-16)
(-3.96069e-05 0.00147094 -9.1394e-17)
(0.0016271 0.000450477 2.88886e-16)
(-3.6624e-06 0.0020655 4.54404e-17)
(-0.00154821 0.000583715 -1.99511e-16)
(-0.00100829 0.000448565 1.00283e-16)
(0.00145294 0.000476146 -9.60829e-21)
(0.00161794 0.000559109 -2.48621e-16)
(-0.00154578 0.000601944 2.91592e-16)
(0.00157114 0.000587246 0)
(0.00142138 0.000958325 -1.77126e-16)
(0.00152969 0.000456677 -9.48476e-17)
(0.0014994 0.000550021 -1.78766e-16)
(-0.00156183 0.000510095 -9.12337e-17)
(-0.00153938 0.000639643 1.95446e-16)
(0.00150162 0.00059329 0)
(0.00161246 0.000505077 0)
(-0.000542795 0.000242981 -2.17177e-16)
(-0.00163798 0.000681958 1.19563e-16)
(-0.00157947 0.000492961 0)
(-0.00154342 0.000565615 0)
(0.0016098 0.000533618 0)
(-0.00154212 0.000596922 1.91054e-21)
(-0.00155618 0.000667205 9.3678e-17)
(-0.00158243 0.000520068 -9.37991e-17)
(0.00155147 0.000614472 3.96947e-21)
(-0.00155646 0.000586921 0)
(0.00140302 0.000590192 0)
(0.0014275 0.00185066 -1.16373e-17)
(-0.00165575 0.00069183 2.29076e-16)
(0.00155997 0.000564274 0)
(0.00136563 0.000684513 2.14588e-16)
(0.00145925 0.000614923 2.17939e-16)
(-0.00165475 0.000673212 1.14318e-16)
(-0.000184577 0.00208423 -7.07323e-21)
(-0.00149379 0.00061423 1.75077e-16)
(-0.00155963 0.000546909 1.9195e-16)
(0.0014255 0.000549015 0)
(-0.00154743 0.000584137 3.0057e-16)
(-0.00154083 0.00071309 -9.52166e-17)
(0.00153409 0.000593849 0)
(-0.00154365 0.000600867 0)
(0.00130887 0.000568132 3.43569e-16)
(0.00150781 0.000667776 0)
(0.00149665 0.000546655 0)
(0.00156419 0.000747093 2.58468e-17)
(0.00152101 0.000541229 0)
(0.00154378 0.000644385 -3.67871e-16)
(-0.0015026 0.000706861 0)
(-0.00149586 0.000697962 -1.80866e-16)
(-0.00149541 0.000696079 2.70923e-16)
(-0.00147446 0.000683616 8.88772e-17)
(0.00210355 0.00121829 1.48757e-16)
(-0.000470782 0.00220663 0)
(0.00152629 0.000694386 2.13763e-16)
(-0.00155836 0.000564148 -1.9408e-16)
(0.00120265 0.000643619 -1.90308e-16)
(-0.00156764 0.000509291 0)
(0.00139025 0.000536326 -1.76631e-16)
(0.00150936 0.000530351 -2.98057e-18)
(-0.00153898 0.000598423 9.32578e-17)
(-0.000341976 0.0023907 -1.77907e-16)
(-0.000748649 0.00207109 1.1184e-17)
(0.00102383 0.000537991 0)
(0.00154331 0.000662008 0)
(0.00166022 0.00059335 0)
(0.00153811 0.000646456 5.94669e-21)
(-0.00155576 0.000547901 0)
(0.00150281 0.000570771 0)
(-0.00151336 0.000691499 -1.40088e-16)
(-0.00149736 0.000681792 1.83784e-16)
(3.15541e-05 0.002068 -1.84692e-16)
(-0.00145544 0.000552782 1.99298e-16)
(-0.00148919 0.000692123 -4.53591e-17)
(0.00153811 0.00063915 1.95364e-16)
(0.00160848 0.000562663 -6.15113e-17)
(-0.00153513 0.000597533 1.85469e-16)
(0.00157138 0.000678669 0)
(-0.00150246 0.000696589 0)
(-0.00154721 0.000585081 0)
(-0.00156843 0.000597694 -1.08726e-16)
(0.00149615 0.000538882 -1.93043e-16)
(0.00142884 0.000598486 3.74492e-21)
(-0.00154301 0.000600671 0)
(-0.00154857 0.000562821 9.83239e-17)
(-0.000951496 0.00188814 0)
(0.00130114 0.000780811 0)
(0.000229072 0.00228265 8.61741e-17)
(0.00145529 0.0005841 5.74626e-17)
(-0.00151145 0.000674971 0)
(-0.00150421 0.000687575 0)
(-0.00150342 0.000683027 1.88217e-16)
(-0.00150947 0.000680624 -1.86173e-16)
(-0.0015647 0.000517963 2.97768e-16)
(-0.000152826 0.000382636 5.13888e-17)
(-0.00157534 0.000603847 -5.90061e-17)
(-0.00148502 0.000682635 6.23699e-17)
(0.00150947 0.000593984 2.23735e-17)
(-0.00155315 0.000552547 -9.62582e-17)
(-0.000425292 0.00154687 -1.01155e-16)
(-0.00153582 0.000733702 1.89326e-16)
(-0.00155552 0.000555425 1.92815e-16)
(0.00178964 0.00119661 0)
(-0.000173619 0.00155992 0)
(-0.00161782 0.000670105 6.10613e-21)
(0.0014684 0.000584374 2.04395e-16)
(0.00155181 0.000634734 -1.05649e-16)
(-0.00149997 0.000681773 1.81888e-16)
(0.00134748 0.000501212 -1.31317e-16)
(0.000265226 0.000180236 1.07918e-16)
(-0.00150493 0.000683506 -3.65587e-16)
(2.92371e-05 0.00205404 0)
(-0.00176299 0.000639074 -3.66786e-17)
(-0.00151518 0.000680057 -2.11762e-16)
(-0.00150996 0.000680905 1.90019e-16)
(-0.000535228 0.000271063 2.17218e-16)
(-0.00154708 0.00056645 0)
(0.00162533 0.000355023 1.23013e-16)
(-0.00150329 0.000679362 -9.37846e-17)
(-0.00153749 0.000597258 -1.00072e-16)
(0.00153957 0.000558354 0)
(-0.00150595 0.000682346 0)
(-0.00104209 0.00228158 1.37276e-16)
(-0.0015961 0.000539242 -1.83737e-16)
(0.00149958 0.000518088 0)
(0.00156683 0.000710606 2.37178e-16)
(0.00149962 0.000597504 1.23124e-17)
(-0.000315083 0.00166971 2.58441e-16)
(-0.00154834 0.000585311 0)
(0.00145795 0.000617388 1.98132e-16)
(0.00151367 0.000578287 -2.63562e-16)
(-0.0015502 0.000561722 1.94297e-16)
(0.00159406 0.000752987 0)
(0.000254526 0.000177052 -1.10465e-16)
(-0.00166733 0.000697411 -2.38486e-22)
(-0.0002798 0.00212746 9.63405e-17)
(0.00150497 0.000563163 0)
(-0.00156175 0.00052492 -2.99176e-16)
(0.00139232 0.000791422 3.93345e-16)
(0.00136797 0.00080075 -9.12439e-17)
(0.00151915 0.000594591 -1.3295e-17)
(0.00152109 0.000512398 -1.26247e-16)
(0.00152055 0.000600522 1.94437e-16)
(0.00153603 0.000565238 0)
(-0.00169876 0.000520642 1.43578e-16)
(-0.00160315 0.000522019 -1.87091e-16)
(-0.00151616 0.000669986 -7.47196e-19)
(0.00144072 0.000688765 0)
(0.00141139 0.00060916 2.14671e-16)
(0.000486829 0.000178431 2.31986e-16)
(-0.0015388 0.000574034 1.95534e-16)
(-0.00150159 0.000677975 2.07963e-16)
(-0.00153561 0.000691923 0)
(-0.000949784 0.00222731 1.96761e-16)
(-0.0015531 0.000565267 5.91504e-21)
(0.0014333 0.000530988 1.14694e-16)
(-0.00154558 0.00056947 0)
(-0.00151134 0.000678982 -1.18783e-17)
(-0.00151022 0.00068352 0)
(-0.00150938 0.000682193 -1.85912e-16)
(-0.00155576 0.000601723 0)
(-0.000205612 0.00227719 -1.19591e-16)
(0.001028 0.000569226 -3.44558e-16)
(0.00150241 0.000752524 1.25596e-16)
(-0.00154994 0.00056629 9.7971e-17)
(0.00148062 0.000584241 0)
(0.00158265 0.000738809 -1.26566e-16)
(-0.000261512 0.00225626 -1.90454e-16)
(0.000932588 0.000313695 -2.23906e-16)
(0.00150043 0.000614669 0)
(0.00154017 0.000674679 0)
(0.0014884 0.000633045 -1.87616e-16)
(-0.00155941 0.000533097 0)
(-0.0015393 0.000587475 1.9657e-16)
(-0.000380661 0.00248289 -6.17604e-18)
(-0.00163259 0.000691759 -1.01491e-16)
(-0.00143187 0.000550664 6.10877e-17)
(0.00147232 0.000570404 3.89323e-16)
(-0.00109828 0.00338691 -1.46076e-16)
(0.00251903 0.00099158 -1.97876e-16)
(0.00142956 0.000640159 -2.12584e-16)
(-0.00152971 0.000591322 9.64305e-17)
(-0.00153025 0.00071055 -1.21774e-17)
(-0.00149796 0.000688465 -1.89495e-16)
(0.00149691 0.000570895 2.09789e-16)
(-0.00153405 0.000582585 0)
(-0.00154607 0.000570881 9.90848e-17)
(-0.00176075 0.000634084 1.50958e-16)
(-0.00155293 0.000733184 0)
(-0.0015305 0.000695367 0)
(0.00159354 0.00072701 -1.23283e-16)
(0.00142192 0.000551871 0)
(-0.00154432 0.000585891 0)
(0.00144028 0.000536513 0)
(-0.00151202 0.000682539 1.18324e-17)
(-0.00152869 0.000676077 7.54736e-19)
(0.00139953 0.000472127 0)
(0.00151557 0.000573892 1.9289e-16)
(-3.05501e-05 0.00206721 0)
(0.00149413 0.000503083 0)
(-0.00155136 0.000569163 4.92538e-17)
(-0.00156074 0.000559387 -3.01484e-16)
(0.000159621 0.00092072 0)
(-0.00153528 0.000589761 -1.93418e-16)
(-0.00159402 0.00035656 9.2382e-17)
(-0.00159523 0.000628186 -4.28279e-21)
(-0.0016538 0.000560833 -2.43396e-16)
(-0.00176141 0.000621572 1.5116e-16)
(-0.00151389 0.000710869 0)
(-0.0015623 0.000541185 2.02115e-16)
(-0.00153387 0.00058931 1.00295e-16)
(0.00150857 0.000568857 0)
(-0.00151942 0.000528771 1.62546e-16)
(-0.00153955 0.000577276 -2.6874e-16)
(1.71111e-05 0.00201051 0)
(-0.00150587 0.000676775 -2.80437e-16)
(-0.0015584 0.000633364 0)
(-0.00155104 0.000577765 0)
(0.00153548 0.00056868 2.03118e-16)
(-0.00154527 0.000565496 1.01385e-16)
(0.00134384 0.000490378 2.14782e-16)
(0.0015354 0.000616577 -2.03932e-16)
(-0.00108773 0.000525199 0)
(-0.00164006 0.000551923 0)
(-0.001536 0.000590172 0)
(0.00150428 0.000584491 -2.12709e-16)
(0.00151727 0.000643274 0)
(0.0015152 0.000579032 0)
(-0.00164629 0.000714237 -2.99363e-16)
(0.000207928 0.00203825 2.17985e-16)
(-0.0015212 0.000704722 1.92279e-16)
(0.00155453 0.000479745 -2.15589e-16)
(-1.93297e-05 0.00107544 -6.19433e-17)
(-0.00154435 0.000602252 0)
(-0.00154087 0.000652044 2.99755e-16)
(-0.00147732 0.000692053 -1.8034e-16)
(0.000147407 0.00157352 1.08287e-16)
(0.00158935 0.000335715 0)
(0.00164908 0.000436635 1.14707e-16)
(0.00145293 0.000617534 1.77801e-16)
(-0.000312656 0.000237667 2.10734e-16)
(-0.0015385 0.000572755 -9.03932e-17)
(0.00151763 0.00059964 0)
(0.000941965 0.000353648 0)
(0.00129339 0.00040042 3.8649e-16)
(-0.00153779 0.000591659 0)
(0.00159556 0.000521808 -1.07229e-16)
(-0.00164131 0.000432392 1.26094e-16)
(-0.00154769 0.000589316 9.58121e-17)
(0.00146603 0.000587891 -1.95167e-16)
(-0.00172748 0.000650959 -1.3598e-16)
(-0.00144132 0.000602554 1.84899e-16)
(-0.00168414 0.000775144 1.01008e-16)
(-0.00114979 0.000450243 -1.08943e-16)
(-0.0015516 0.000585927 0)
(-0.0015448 0.000587596 0)
(-9.39277e-05 0.000773779 0)
(-4.94096e-06 0.00200631 -2.5098e-16)
(-0.00165059 0.000584256 0)
(-0.00156052 0.000764337 -8.72304e-17)
(0.00149575 0.000581756 3.76164e-16)
(0.00143752 0.000609238 -1.11175e-16)
(0.00149669 0.000537673 3.79529e-16)
(0.00151601 0.000638547 -5.49154e-17)
(0.00150695 0.000572353 -5.54958e-21)
(-0.00153102 0.000616757 -4.9129e-17)
(-0.00153553 0.000596384 -9.63668e-17)
(-0.000125203 0.0023725 5.97389e-18)
(-0.00154077 0.000593339 -1.95296e-16)
(-0.00153077 0.00063982 -5.15031e-17)
(0.001439 0.000624063 0)
(-0.001544 0.000592612 -9.7587e-17)
(-0.00163242 0.000601879 -3.58921e-16)
(-0.00149752 0.000673531 -1.39395e-17)
(-0.00155222 0.000580688 0)
(-0.00156502 0.00051046 4.83497e-17)
(-0.00154396 0.000571712 -9.87669e-17)
(0.00163909 0.000722173 -2.08723e-16)
(-0.00153252 0.00060731 -9.94717e-17)
(0.000206146 0.00227782 6.96549e-18)
(0.0014706 0.000536577 2.44312e-17)
(-4.38395e-05 0.00225399 -1.98859e-16)
(-0.00171059 0.0006967 2.82351e-16)
(-0.00149133 0.000503709 -3.98529e-16)
(0.00150565 0.000581243 1.03054e-16)
(-0.00171348 0.000697216 1.25936e-16)
(0.000229075 0.00117996 8.11331e-17)
(-0.00152773 0.000605368 1.9798e-16)
(0.00146207 0.000503295 1.76671e-16)
(-1.67455e-05 0.00221211 0)
(-4.24873e-05 0.0019765 -2.83925e-16)
(-0.00153355 0.000633514 -1.57228e-16)
(0.00148295 0.000506128 -5.19585e-17)
(-1.73566e-05 0.00220629 7.90271e-19)
(0.00180317 0.000716849 9.76707e-17)
(-0.00142097 0.000567304 2.95297e-16)
(-0.00154868 0.000588342 -5.09885e-17)
(-0.0015662 0.000558928 0)
(-0.00160928 0.000593756 2.29031e-16)
(0.0014864 0.000600252 -2.02296e-16)
(-0.00153581 0.000597941 -9.68013e-17)
(0.0014868 0.000585205 0)
(-3.57896e-06 0.00219403 -2.01872e-16)
(-0.00162277 0.000624866 1.20769e-16)
(0.00172703 0.00155003 -3.66326e-16)
(0.00152534 0.000580154 0)
(-9.82337e-06 0.00219442 0)
(0.0015663 0.000628638 5.9529e-21)
(6.32359e-06 0.00218818 -2.0211e-16)
(3.4589e-06 0.00219307 4.01902e-16)
(-0.0015311 0.000600641 4.98492e-17)
(-0.000136443 0.00225897 1.97707e-16)
(-5.87185e-06 0.00218643 0)
(-1.41797e-05 0.00219682 2.01155e-16)
(-0.00153267 0.000597496 0)
(0.00176077 0.000990765 0)
(7.00907e-06 0.00219107 0)
(-3.43602e-06 0.00219073 -2.01438e-16)
(-0.00152736 0.000626013 0)
(-7.75225e-06 0.00219242 4.05272e-16)
(-0.00154522 0.000585035 0)
(-3.24986e-06 0.0021921 -2.02419e-16)
(-0.00153392 0.000597396 -2.93183e-16)
(-3.90297e-06 0.00218501 0)
(-0.00151866 0.00062948 9.67026e-17)
(-0.000690131 0.0025088 -4.71365e-17)
(0.00160137 0.000710821 2.50257e-16)
(0.00162738 0.000612516 0)
(4.38815e-07 0.00218997 1.45283e-20)
(-8.55988e-06 0.00219356 -1.99389e-16)
(-0.00155635 0.000518716 -8.51747e-17)
(0.00146764 0.000656787 -2.05743e-16)
(0.00133796 0.000541817 0)
(0.00149765 0.000573988 3.10263e-16)
(-1.6488e-06 0.0021911 2.01998e-16)
(-0.00152751 0.000600012 0)
(-5.38706e-05 0.00221552 2.00563e-16)
(-1.5372e-06 0.0021862 0)
(-3.78993e-06 0.00218951 -2.04879e-16)
(-0.00153946 0.000599975 0)
(0.00150889 0.000636369 1.95266e-16)
(-0.00154449 0.000590771 2.68337e-21)
(5.81396e-07 0.00218557 2.02884e-16)
(0.00153016 0.00056035 -4.19349e-16)
(0.000223987 0.00130951 0)
(-7.87253e-06 0.00219336 0)
(0.00169782 0.000784311 1.46624e-16)
(0.00149162 0.000522629 0)
(-0.000172131 0.00235024 0)
(-0.00154226 0.00058396 -3.5229e-16)
(-5.88066e-05 0.00224417 0)
(-0.00153524 0.000597177 9.7557e-17)
(-0.00130236 0.00111163 -5.25373e-17)
(-0.00152819 0.000626498 2.01112e-16)
(5.36911e-07 0.0021867 -4.04623e-16)
(-0.00157023 0.00057075 5.41571e-17)
(-0.0015174 0.000629271 1.92963e-16)
(-2.70023e-06 0.00218852 0)
(-5.41689e-06 0.00218525 -1.98248e-16)
(0.00142333 0.00048615 0)
(6.83226e-07 0.00218997 -2.04205e-16)
(1.29745e-06 0.00218833 0)
(-0.000102519 0.00227553 2.01275e-16)
(8.57669e-06 0.00198452 -2.27204e-16)
(-0.00147898 0.000625601 1.17406e-16)
(-3.17524e-05 0.00221944 9.81726e-20)
(0.00108893 0.000320019 0)
(-0.00157087 0.000576244 7.99849e-17)
(-0.00148014 0.000635335 4.68853e-17)
(4.57541e-06 0.00218433 4.05013e-16)
(-8.69931e-06 0.00219242 2.016e-16)
(-0.00156857 0.000598756 -4.65998e-16)
(1.38321e-06 0.00218751 2.02682e-16)
(0.0013925 0.000450124 6.74769e-21)
(-1.11618e-05 0.00218819 2.00601e-16)
(-0.00154912 0.000588455 0)
(-0.00152666 0.000612683 5.12178e-17)
(-1.2065e-06 0.0021889 -1.45952e-20)
(0.00148796 0.000728937 2.10081e-16)
(-0.00154123 0.000600571 -1.02841e-16)
(-0.00151978 0.000626043 -8.98993e-17)
(-5.41061e-06 0.00219154 -2.01523e-16)
(0.0014973 0.000586815 3.51593e-18)
(-3.72377e-07 0.0021898 -1.45992e-20)
(-0.00155273 0.000586688 4.80863e-17)
(7.08867e-06 0.00218592 0)
(-0.00154428 0.000583863 0)
(-1.27007e-05 0.00219155 -2.01465e-16)
(1.10382e-06 0.00218899 2.02264e-16)
(0.00149681 0.000621158 -2.45278e-17)
(-0.00157537 0.000538499 2.19719e-16)
(-1.14782e-05 0.0021885 1.99771e-16)
(2.74545e-06 0.00218566 0)
(-0.00153063 0.000621123 0)
(-0.00152343 0.000626647 1.53402e-16)
(-0.00157187 0.000502912 0)
(-7.93425e-05 0.0013551 -1.08308e-16)
(-4.1786e-07 0.0021896 2.02709e-16)
(-0.00151987 0.000624548 -1.45372e-16)
(-0.00153331 0.000597398 0)
(-0.00152552 0.000580997 5.30125e-17)
(-2.05672e-05 0.00219607 1.97006e-16)
(1.34637e-07 0.00218643 -1.46727e-20)
(-0.00153625 0.000587448 -5.14125e-17)
(0.000890042 0.0001072 -2.18993e-16)
(-1.94889e-05 0.00220085 -2.00425e-16)
(-6.2156e-06 0.00219205 2.02103e-16)
(3.12913e-06 0.00218657 2.02981e-16)
(-2.21222e-07 0.0021935 -2.00155e-16)
(0.00182647 0.000925493 -1.92046e-16)
(-1.29524e-05 0.00218855 -2.01108e-16)
(-0.00154714 0.000582812 0)
(-0.00150652 0.000549812 0)
(0.00144827 0.00055525 0)
(-3.35115e-06 0.00218627 -2.03569e-16)
(-0.00151784 0.000628832 2.48141e-16)
(0.00148314 0.00055233 -1.5715e-16)
(-0.00146974 0.000595191 2.71352e-16)
(-0.00153562 0.000596233 -1.96915e-16)
(-0.00153794 0.000594275 -1.01262e-16)
(-0.00165777 0.000780424 -1.00454e-16)
(-6.26027e-06 0.00218759 -4.05791e-16)
(5.98602e-06 0.00218638 8.46294e-20)
(-0.00154764 0.000636456 -5.80044e-17)
(-0.00153894 0.000617685 4.59957e-17)
(-0.00153842 0.000598113 -5.05265e-17)
(8.77084e-06 0.00218905 -2.02615e-16)
(1.87524e-06 0.00218635 4.10224e-16)
(-1.06927e-05 0.0021887 -2.0296e-16)
(1.87995e-06 0.00218869 -7.95363e-19)
(-0.00153423 0.000608701 4.91293e-17)
(-7.46483e-06 0.00218743 0)
(1.04433e-05 0.00218795 -2.03783e-16)
(7.1439e-06 0.00218559 2.02749e-16)
(9.00557e-06 0.00218916 3.50537e-20)
(-0.00154029 0.000578786 1.02069e-16)
(-1.23438e-05 0.00220086 0)
(-0.00154109 0.000586073 -2.00615e-16)
(-0.00157451 0.000570372 0)
(0.00150743 0.000577424 -2.22458e-16)
(-8.44829e-07 0.00218773 -1.57904e-18)
(0.00144501 0.000576662 1.97902e-16)
(1.37962e-06 0.00218801 -1.45331e-20)
(-0.000133947 0.00224535 0)
(-8.92224e-05 0.0022168 -1.9927e-16)
(-0.00154056 0.000588127 0)
(-0.0015533 0.000586046 -9.86557e-17)
(1.49408e-05 0.00218574 0)
(-0.00152833 0.000592612 -2.14072e-16)
(-0.00153655 0.000602239 -1.06354e-16)
(0.00149962 0.000596479 2.1374e-16)
(8.4741e-07 0.0021867 -2.03083e-16)
(-1.24727e-05 0.00218877 -2.03159e-16)
(-0.00154376 0.000614713 5.55534e-17)
(-2.3616e-06 0.00218827 -2.00306e-16)
(-0.00152233 0.000578386 3.11585e-16)
(-1.00883e-05 0.00218701 -2.02289e-16)
(3.12845e-06 0.00218822 -1.45602e-20)
(-0.00152417 0.00064576 -2.36558e-16)
(-1.36443e-05 0.00218832 2.00629e-16)
(0.00151031 0.0005712 0)
(-0.00153429 0.000600081 -5.02509e-17)
(-8.01905e-07 0.00218726 3.1889e-18)
(-0.00154388 0.000577575 1.00775e-16)
(-3.69829e-07 0.00218668 -1.60072e-18)
(-0.00153473 0.000589384 5.04603e-17)
(-0.00145022 0.000540532 0)
(5.75415e-06 0.00218824 -1.46319e-20)
(-0.0016743 0.000705873 3.00915e-16)
(1.32136e-06 0.00218936 2.04469e-16)
(0.0013894 0.000706203 -5.87773e-17)
(-0.00146638 0.000654828 1.95205e-16)
(-4.78543e-07 0.00218799 2.04615e-16)
(0.0011186 0.000440163 2.15026e-16)
(-2.85925e-06 0.00218803 2.0332e-16)
(1.69975e-06 0.00218826 3.17269e-18)
(0.00128224 0.000468473 2.27232e-16)
(0.00137518 0.000481881 -2.1254e-16)
(0.00156378 0.000619654 0)
(-0.00163836 0.000668107 0)
(-1.25616e-05 0.00218821 -1.59107e-18)
(0.00142444 0.000539503 2.7997e-16)
(-1.21427e-05 0.00218706 -1.57972e-18)
(-0.00153809 0.0005954 -9.82424e-17)
(0.00139754 0.000479415 0)
(1.14281e-05 0.00218725 -4.05553e-16)
(1.86696e-06 0.00218753 -4.08069e-16)
(-0.00152992 0.000616855 0)
(-0.00153998 0.000577691 0)
(1.28638e-06 0.00218923 -4.05519e-16)
(-4.37428e-05 0.00221008 0)
(-0.00152886 0.00063105 -1.95479e-16)
(-2.94048e-05 0.00220011 -4.00513e-16)
(-0.00139821 0.000504806 0)
(0.00158073 0.000508079 5.24847e-17)
(1.56833e-07 0.00218526 -1.60739e-18)
(4.9787e-06 0.00218991 2.0431e-16)
(0.00119692 0.000745844 -7.03676e-18)
(5.83129e-07 0.0021875 -2.04792e-16)
(-0.0015486 0.000570295 1.57437e-16)
(-0.00162915 0.000754701 1.38982e-16)
(-1.35023e-05 0.00218785 2.01867e-16)
(-0.00154374 0.000577082 1.45748e-16)
(-2.3896e-06 0.00218852 2.04813e-16)
(-1.25505e-05 0.00218733 -2.02605e-16)
(-1.41591e-05 0.00218754 -2.01907e-16)
(-0.001524 0.000619818 0)
(-0.00154168 0.000579265 -4.98682e-17)
(-1.54596e-06 0.00218712 -7.98782e-19)
(1.2931e-05 0.00218797 0)
(-0.00152187 0.000617851 1.98688e-16)
(-0.00153481 0.000579311 0)
(1.98103e-06 0.00218707 -2.03401e-16)
(-1.05826e-05 0.00219459 3.16231e-18)
(0.00149703 0.000581654 -2.14735e-16)
(1.97803e-06 0.0021878 -4.10852e-16)
(-0.0016532 0.000650717 3.41575e-16)
(-8.04899e-07 0.00218767 0)
(-7.09517e-07 0.0021886 2.0276e-16)
(-4.22686e-07 0.00218792 0)
(-9.3197e-08 0.00218802 2.0282e-16)
(1.60506e-06 0.00218735 -2.02307e-16)
(0.00128547 0.000500426 1.21377e-16)
(5.85347e-07 0.00218696 2.02449e-16)
(1.0106e-06 0.00219179 -1.46571e-20)
(-2.4136e-08 0.00218764 2.04802e-16)
(-1.46869e-05 0.00218795 4.04647e-16)
(-0.00154224 0.000589256 0)
(-0.00154082 0.00059414 -5.25276e-17)
(-1.27776e-05 0.00218761 0)
(-2.91327e-07 0.00218776 0)
(-1.47936e-06 0.00218687 -2.06612e-16)
(1.29594e-05 0.00218862 2.03099e-16)
(1.07083e-05 0.00218875 2.03864e-16)
(-0.0015376 0.000598418 2.57697e-16)
(1.15379e-05 0.00218763 2.03295e-16)
(-8.41134e-07 0.00218843 -2.04794e-16)
(-2.09455e-06 0.00218783 0)
(-5.75037e-07 0.00218765 -1.4706e-20)
(-0.00154098 0.000593761 1.00376e-16)
(1.28252e-05 0.00218789 0)
(1.21049e-05 0.00218721 2.03437e-16)
(-5.13985e-06 0.00219191 -2.05257e-16)
(-0.00154676 0.000576902 0)
(-1.90782e-08 0.0021877 0)
(0.00151113 0.000581469 -2.13231e-16)
(-2.67408e-07 0.00218916 1.59879e-18)
(-2.12891e-07 0.00218965 -3.98539e-19)
(-1.04909e-05 0.00218585 -7.92068e-19)
(-1.42048e-05 0.00218732 1.46015e-20)
(-1.14601e-05 0.00218649 7.92716e-19)
(-0.00153673 0.000666818 -1.24096e-16)
(-1.36857e-05 0.00218632 2.03611e-16)
(7.31255e-06 0.00218714 0)
(-1.34131e-05 0.00218661 2.02163e-16)
(-1.3583e-05 0.00218703 -2.02509e-16)
(-1.43191e-05 0.00218793 -2.03449e-16)
(-0.00185866 0.00152036 -3.08463e-16)
(-0.000354327 0.000438384 -3.84299e-16)
(1.32122e-05 0.00218819 -2.03714e-16)
(-1.31406e-06 0.00218807 -2.03072e-16)
(1.53561e-07 0.00218857 -2.03026e-16)
(1.18683e-05 0.00218717 2.03499e-16)
(-0.0015487 0.000584204 -2.02474e-16)
(-1.52218e-05 0.00218684 2.02141e-16)
(-1.27342e-06 0.00218805 -2.02691e-16)
(-9.99897e-06 0.00219222 -4.03168e-16)
(-1.14576e-06 0.00218734 -1.6033e-18)
(1.41151e-05 0.00218726 2.02729e-16)
(0.00149939 0.000575131 2.13265e-16)
(-4.67011e-06 0.00218871 -2.0273e-16)
(8.59679e-07 0.00218764 -1.45899e-20)
(0.0015975 0.000659529 -2.63006e-16)
(-4.69136e-07 0.00218756 0)
(-9.7922e-07 0.00218763 0)
(-1.51439e-05 0.00218731 -4.06254e-16)
(-0.00154091 0.000591364 1.00717e-16)
(2.82456e-07 0.00218636 -4.00494e-19)
(-1.75657e-05 0.00218803 2.12279e-19)
(0.00150886 0.000560882 1.41756e-17)
(-1.61537e-05 0.00218905 2.03076e-16)
(1.59945e-05 0.00218811 2.03049e-16)
(1.464e-05 0.00218776 -2.02901e-16)
(3.67049e-06 0.00218753 -2.03472e-16)
(-1.71698e-05 0.00218823 1.45946e-20)
(-0.00160157 0.000570483 -2.15475e-16)
(-0.00131693 0.000510106 2.65479e-16)
(-1.50915e-06 0.00218554 -1.46745e-20)
(-9.58723e-07 0.00218797 -2.0259e-16)
(-0.00152713 0.000620221 5.11238e-17)
(1.3889e-06 0.00218723 -1.47063e-20)
(-1.5835e-05 0.00218662 8.05151e-19)
(1.59035e-05 0.00218731 -4.06043e-16)
(7.28299e-06 0.00218527 2.03834e-16)
(1.35124e-05 0.0021869 -2.03832e-16)
(1.32881e-05 0.00218737 -2.03826e-16)
(1.58805e-05 0.0021876 2.03126e-16)
(1.32452e-05 0.00218702 1.98679e-19)
(1.57611e-05 0.00218766 0)
(0.00151111 0.000571373 0)
(-1.28399e-05 0.0021878 2.04489e-16)
(-1.03857e-06 0.00219008 0)
(2.87524e-06 0.00218922 2.03737e-16)
(1.57955e-05 0.00218759 0)
(1.57285e-05 0.00218778 2.03194e-16)
(1.59345e-05 0.00218743 -9.91915e-20)
(1.66814e-06 0.00218934 1.99364e-16)
(1.43148e-05 0.00218853 0)
(-4.12374e-06 0.00218982 0)
(-1.33394e-05 0.00218945 -2.04709e-16)
(-0.00153766 0.000593918 -2.4748e-21)
(1.40533e-05 0.00218753 0)
(-3.22808e-05 0.00222499 0)
(1.38096e-05 0.00218756 0)
(-0.00150236 0.000573179 1.5717e-16)
(1.0894e-06 0.0021882 -2.02843e-16)
(-9.92884e-06 0.00219229 2.04682e-16)
(1.44399e-05 0.00218882 -9.94051e-20)
(-0.00150799 0.000629819 5.56767e-17)
(-0.00152904 0.00062159 -5.08321e-17)
(1.2633e-05 0.00218843 -2.0382e-16)
(-3.79553e-06 0.0021842 0)
(-5.31102e-07 0.00219141 -2.03901e-16)
(1.28064e-05 0.00218858 1.46467e-20)
(1.58784e-05 0.00218733 -2.0366e-16)
(-1.51898e-06 0.00218259 4.05042e-16)
(0.0014556 0.000499786 -3.65596e-16)
(0.00150655 0.000582834 -4.3092e-16)
(-2.21174e-06 0.00218837 4.07252e-16)
(0.00148783 0.000586833 0)
(1.25035e-05 0.00218857 0)
(1.61331e-05 0.00218699 -3.96998e-19)
(-0.00156651 0.000619958 -1.84023e-16)
(-0.00153498 0.000627684 1.05906e-16)
(9.92417e-07 0.00218679 -1.00204e-19)
(1.26263e-05 0.00218876 2.03872e-16)
(1.34115e-06 0.00218766 -2.03131e-16)
(-0.00140346 0.00134119 1.02777e-16)
(1.19546e-05 0.00218851 7.96849e-19)
(-1.54783e-05 0.00218891 2.03302e-16)
(-1.27293e-06 0.00219061 2.04072e-16)
(-0.00175263 0.000897055 -2.01501e-16)
(1.23507e-05 0.0021892 0)
(-8.94789e-07 0.0021879 4.01575e-19)
(-3.35481e-06 0.00218994 -2.03106e-16)
(-0.00154185 0.000584602 0)
(0.00155165 0.000425896 3.85787e-16)
(-0.0015178 0.000630423 5.36681e-17)
(1.18139e-05 0.00218873 -7.96981e-19)
(1.65849e-06 0.00218838 -2.0383e-16)
(-1.37761e-05 0.00218638 -2.03657e-16)
(-0.00153478 0.000616353 3.04097e-16)
(1.18561e-05 0.00218947 -2.0409e-16)
(-1.80853e-05 0.00218719 7.93023e-19)
(9.49838e-07 0.00218675 2.00592e-19)
(1.47074e-05 0.00218725 0)
(-4.52697e-07 0.00219105 0)
(1.49046e-05 0.00218708 0)
(1.55618e-06 0.00218837 0)
(-0.00153727 0.000584309 -5.05808e-17)
(-1.62369e-05 0.00218641 0)
(-1.07206e-06 0.00218778 0)
(0.00162524 0.000758216 1.5751e-16)
(1.02017e-06 0.00218842 0)
(-8.83518e-05 0.00227792 0)
(-4.32693e-07 0.00219097 4.08011e-16)
(7.98703e-07 0.00218677 0)
(0.00149671 0.000550678 -4.81148e-17)
(0.0015063 0.0005849 0)
(0.00135528 0.000665859 1.05924e-16)
(0.00147762 0.000534104 -2.06199e-16)
(1.71176e-06 0.00218841 -4.07226e-16)
(-0.00139131 0.000602719 0)
(6.82327e-07 0.00218847 -1.99182e-19)
(-0.00152688 0.000617576 -9.91586e-17)
(1.65541e-05 0.00218738 0)
(0.000746752 0.000854175 0)
(2.70666e-07 0.00218785 -4.02033e-19)
(1.3183e-06 0.00219336 -1.26935e-17)
(0.000563219 0.0013452 -7.05269e-18)
(1.47052e-05 0.00218607 0)
(1.76403e-06 0.00218777 0)
(-0.00153384 0.000603547 0)
(-7.08338e-07 0.00218793 4.06412e-16)
(-6.28463e-07 0.00218847 0)
(0.00150289 0.000576662 3.89388e-21)
(0.000425499 0.00126198 0)
(-7.5394e-08 0.00218802 4.14447e-19)
(-1.83491e-07 0.0021891 -2.04147e-16)
(1.11575e-06 0.00218751 -2.03127e-16)
(9.37103e-07 0.00218689 -4.02707e-19)
(4.05194e-07 0.00218716 0)
(8.47236e-07 0.00218935 1.47224e-20)