/*--------------------------------*- C++ -*----------------------------------*\
  =========                 |
  \\      /  F ield         | OpenFOAM: The Open Source CFD Toolbox
   \\    /   O peration     | Website:  https://openfoam.org
    \\  /    A nd           | Version:  12
     \\/     M anipulation  |
\*---------------------------------------------------------------------------*/
FoamFile
{
    format      ascii;
    class       surfaceScalarField;
    location    "0.26";
    object      phi;
}
// * * * * * * * * * * * * * * * * * * * * * * * * * * * * * * * * * * * * * //

dimensions      [0 3 -1 0 0 0 0];

internalField   nonuniform List<scalar> 
6438
(
-4.20652e-08
5.27475e-06
-5.23269e-06
-4.53925e-08
6.12799e-06
-6.0826e-06
-5.75001e-06
-9.80527e-07
6.73054e-06
5.45387e-06
-5.98882e-06
5.34945e-07
8.37681e-06
-6.54577e-06
-1.83104e-06
1.8907e-06
6.4861e-06
-6.54043e-06
7.90422e-07
-5.66408e-06
5.61869e-06
6.1261e-06
-7.30976e-06
1.18366e-06
5.68622e-06
-6.67207e-06
9.85847e-07
-5.49844e-06
6.69548e-06
-1.19704e-06
1.31876e-06
-6.02312e-06
4.70437e-06
-6.81769e-06
1.31925e-06
5.2258e-06
2.40011e-06
-7.6259e-06
4.91231e-06
-4.95437e-06
-2.77861e-07
5.75647e-06
-5.47861e-06
-7.25296e-06
7.03544e-06
2.17521e-07
-5.49165e-06
6.674e-06
-1.18235e-06
-6.81769e-06
1.32604e-06
2.16409e-06
4.56802e-06
-6.73212e-06
-1.57499e-06
-1.02809e-06
2.60308e-06
-3.3425e-07
6.02793e-06
-5.69368e-06
-5.59468e-06
-9.05968e-07
6.50065e-06
-6.85188e-06
3.0022e-06
3.84967e-06
-5.93768e-06
5.60343e-06
-5.27324e-06
6.41037e-06
-1.13713e-06
-6.4583e-06
8.63617e-07
6.11138e-06
-4.79262e-06
-5.55196e-06
-1.0455e-06
6.59746e-06
-6.72264e-06
1.44941e-06
5.13614e-06
-6.46759e-06
1.33144e-06
2.82028e-08
-6.2937e-06
6.26549e-06
6.16003e-06
-6.19987e-06
3.98423e-08
-6.10382e-06
1.02354e-06
5.08027e-06
-8.23972e-06
1.33578e-06
6.90394e-06
5.79581e-06
-5.7676e-06
5.84964e-06
-3.95768e-07
3.79463e-06
5.31708e-06
-9.11171e-06
-1.88827e-06
7.11406e-06
-5.44191e-06
5.98111e-06
-5.39206e-07
-6.30709e-06
6.2508e-06
5.6292e-08
-2.61565e-06
4.77974e-06
5.63751e-06
4.87103e-08
-6.77845e-06
6.63979e-06
1.38655e-07
6.06382e-06
-9.27674e-07
-4.57508e-06
4.29722e-06
-7.88208e-06
1.33632e-06
5.99473e-06
5.75982e-07
-6.57072e-06
-4.64795e-06
-1.45587e-06
-8.57145e-07
-5.60634e-06
6.36226e-06
-7.55916e-07
-4.16156e-06
6.01405e-06
-1.8525e-06
6.04665e-06
-6.04665e-06
1.90226e-06
4.58558e-06
6.02696e-07
-5.18827e-06
2.69105e-06
1.3125e-06
-4.00355e-06
5.11808e-06
1.08461e-06
-6.20269e-06
4.94497e-06
-1.94277e-06
-2.86654e-06
-5.01554e-06
-5.96682e-08
5.33139e-06
-5.27173e-06
-6.57407e-06
6.57407e-06
-6.81308e-06
6.88528e-06
-7.22012e-08
2.76636e-07
5.06051e-06
-5.33715e-06
1.87838e-08
-6.20277e-06
6.18399e-06
5.75685e-06
-5.73806e-06
-6.27754e-06
7.25582e-07
-6.29265e-06
-4.85797e-07
-5.41318e-06
5.95266e-06
-5.39478e-07
5.98962e-07
5.18343e-06
-5.78239e-06
-6.36696e-06
6.12239e-06
2.44566e-07
6.20503e-06
-6.20503e-06
5.76353e-06
3.62571e-07
-3.78827e-06
-2.88379e-06
5.40555e-06
1.13967e-06
-6.54521e-06
-5.30079e-06
-1.0063e-06
4.71026e-06
3.63705e-06
-8.34731e-06
-7.29136e-06
4.67571e-06
-4.6482e-06
-2.64316e-06
6.43106e-06
-1.02552e-06
3.8289e-06
-1.13785e-06
5.20155e-06
5.98095e-07
-5.79964e-06
-6.41487e-06
-3.98208e-07
-9.05047e-07
-1.56392e-06
-5.01015e-06
6.95614e-06
-6.95614e-06
-4.59479e-06
-1.77217e-06
-4.16125e-07
-7.82359e-06
-6.00189e-06
5.97769e-06
2.42011e-08
2.16289e-07
-6.07656e-06
5.86027e-06
-6.67657e-07
5.86921e-06
6.00631e-06
1.5372e-07
-6.27453e-06
-9.78427e-07
-6.33861e-06
6.50165e-06
-1.63041e-07
6.6068e-06
-3.69843e-06
-2.90837e-06
5.93296e-06
-5.71667e-06
1.20501e-07
6.64806e-06
-3.38318e-06
-3.26488e-06
3.78403e-06
2.82277e-06
6.1057e-06
-6.1057e-06
-4.68279e-06
6.71943e-06
-2.03663e-06
-5.88667e-06
2.80334e-07
-8.04218e-07
-4.76912e-06
5.57334e-06
-5.51639e-06
2.15601e-07
-5.91305e-06
1.23026e-06
5.10331e-06
1.12913e-06
-6.23244e-06
-3.50024e-07
5.45333e-06
-5.32858e-06
6.15697e-06
-8.28392e-07
-5.66245e-06
2.20539e-07
3.89605e-06
2.75201e-06
5.89356e-06
-1.18919e-06
2.53003e-07
5.79364e-06
-5.08835e-06
-4.28034e-07
5.32117e-06
1.13247e-06
-6.45364e-06
-2.94058e-06
-2.53886e-06
5.47944e-06
3.87283e-06
-4.85614e-07
-3.38722e-06
-6.2937e-06
1.2757e-06
6.31365e-06
-7.58936e-06
-2.9255e-06
1.35051e-06
6.2975e-06
1.12873e-07
6.82005e-06
-3.53093e-06
-3.28912e-06
2.28401e-06
4.53605e-06
6.37589e-06
-1.05472e-06
7.77463e-06
-3.98001e-06
-5.76047e-06
1.41685e-08
5.74631e-06
-8.23777e-06
8.44224e-07
7.39355e-06
-9.434e-08
-5.71746e-06
5.8118e-06
6.29032e-06
3.49469e-07
-4.85063e-06
4.79096e-06
-5.78846e-06
5.90502e-06
-1.16561e-07
5.86106e-06
-5.9554e-06
6.04673e-06
-6.04673e-06
5.95782e-06
1.70168e-07
5.96931e-06
-1.38373e-06
5.88966e-06
-5.61303e-06
-5.18689e-06
4.38268e-06
5.31275e-08
5.71513e-06
-5.76826e-06
6.71388e-06
-4.70597e-06
-2.00791e-06
-6.20277e-06
-8.86641e-08
6.92521e-08
-5.73333e-06
-5.74751e-06
3.34331e-07
6.64761e-08
5.72933e-06
5.54445e-06
-4.94549e-06
-5.71813e-06
3.89554e-07
5.80239e-06
-1.64878e-07
-2.06895e-07
5.04872e-06
-4.84182e-06
3.96855e-06
2.74533e-06
-5.94751e-06
1.27523e-06
4.67228e-06
6.05952e-06
-4.54714e-08
-8.01556e-06
7.31673e-07
7.28389e-06
-8.10359e-08
-5.68727e-06
5.76831e-06
3.78077e-06
9.2067e-08
3.60501e-07
5.69902e-06
5.64178e-06
4.696e-07
5.82653e-06
-5.90757e-06
-6.07173e-06
-2.02802e-07
6.19231e-06
-6.65096e-06
4.58654e-07
-5.53839e-06
-2.22087e-07
-6.7396e-06
2.92223e-06
3.81737e-06
4.84906e-09
5.82762e-06
2.00302e-07
-5.48329e-06
6.37588e-06
-8.9259e-07
-6.0495e-06
5.20797e-06
8.41531e-07
-8.17486e-07
2.11221e-06
-1.29473e-06
-1.89442e-06
-4.82822e-06
-6.07656e-06
-4.80129e-08
5.80486e-06
1.77674e-06
4.94268e-06
-9.70742e-08
-5.9101e-06
-2.7574e-08
-1.24553e-07
-6.46285e-06
5.46209e-06
1.00076e-06
-3.80786e-07
4.81417e-06
9.49358e-07
9.44703e-06
-4.12995e-06
-1.9992e-06
-4.81849e-06
5.92626e-06
8.00495e-08
-5.08988e-06
2.14929e-06
-2.28289e-06
-3.60685e-06
5.88975e-06
-2.03872e-06
-4.77897e-06
-3.32002e-06
8.03028e-06
-6.10858e-06
1.98473e-07
-5.76839e-06
5.79062e-06
-2.22344e-08
-4.76898e-06
4.56208e-06
-6.94739e-08
-5.65349e-06
5.72296e-06
-6.21435e-06
1.05769e-07
5.18453e-06
-6.16868e-06
9.84149e-07
5.7758e-06
-5.84528e-06
5.16195e-06
-1.95492e-06
-3.20703e-06
-7.80549e-06
2.76362e-06
5.04187e-06
5.29405e-06
5.08341e-07
4.37322e-06
2.66222e-06
1.27891e-06
5.67723e-06
-1.51555e-06
-5.4406e-06
-6.28715e-06
6.23217e-06
5.49708e-08
-6.27048e-06
-1.6664e-08
-6.23781e-06
-3.26686e-08
1.78295e-08
1.6218e-06
-9.08633e-06
7.46453e-06
-6.75083e-06
8.02653e-06
5.33083e-06
-5.27771e-06
5.69507e-06
2.37883e-07
4.6485e-07
4.6971e-06
-5.71746e-06
-5.18394e-06
5.15887e-06
6.44285e-07
-5.80315e-06
-2.98366e-08
-1.22956e-06
9.07354e-06
-7.84399e-06
8.60776e-06
-6.20766e-06
-2.60976e-06
3.92225e-06
-1.65454e-06
-5.08506e-06
-4.5192e-06
-3.28628e-06
-5.71642e-06
-3.55312e-07
-5.75598e-06
5.75517e-06
8.14547e-10
-9.1057e-07
5.40547e-06
-4.4949e-06
-6.17693e-06
6.22045e-06
-4.35205e-08
-6.1125e-06
-6.44273e-08
-7.8586e-06
4.88728e-07
7.36987e-06
-5.4941e-06
-3.56415e-07
5.85052e-06
6.15376e-06
6.66901e-08
-1.09412e-06
-6.72531e-06
2.44863e-06
4.27667e-06
3.9163e-08
-3.56208e-06
-3.16322e-06
-8.40559e-08
-6.28429e-08
-5.62185e-06
5.6847e-06
-5.78238e-06
2.88283e-07
5.22564e-06
7.00613e-07
6.02255e-06
-5.76955e-06
5.72187e-06
-5.78471e-06
5.6967e-06
1.64359e-07
2.79926e-06
5.8085e-06
5.9509e-06
-1.13672e-06
-4.66865e-07
-7.77091e-06
-3.41188e-07
4.69635e-06
-4.35516e-06
-6.08341e-06
-2.90885e-08
-6.08257e-06
-8.38573e-10
6.13182e-06
-6.08808e-06
-4.37464e-08
6.06459e-06
6.72352e-08
-5.68727e-06
1.40384e-06
-1.92838e-06
5.24538e-07
-6.86754e-06
4.01693e-06
2.85061e-06
3.07806e-06
-6.16989e-06
3.09182e-06
-5.38556e-06
-5.01109e-07
-5.73681e-06
5.70838e-06
2.8432e-08
-5.96947e-06
5.75679e-06
2.12687e-07
-4.76538e-07
6.10881e-06
-5.63227e-06
-5.92691e-06
1.44524e-07
-6.58048e-06
8.20229e-06
-6.1224e-07
-5.33527e-06
-6.18653e-06
5.71e-06
-4.84799e-06
-4.46468e-07
5.29446e-06
-4.54614e-06
6.02534e-06
3.92418e-08
-4.12946e-06
-1.10455e-06
1.22476e-06
-1.20215e-07
-5.72276e-08
2.21089e-07
-7.85046e-06
7.62937e-06
-4.40214e-06
-2.1383e-06
-6.11255e-06
5.98683e-06
1.25712e-07
-6.01858e-06
-9.39639e-08
-2.16535e-06
1.34787e-06
5.68647e-06
1.40062e-07
6.07398e-06
-1.01347e-06
6.01242e-06
-6.00517e-06
-7.24959e-09
-1.62687e-08
-5.57889e-06
5.59515e-06
6.29247e-06
-4.51573e-06
-7.56526e-08
6.24602e-06
3.52259e-06
-9.76861e-06
6.18927e-06
-6.18927e-06
9.55582e-07
5.61849e-06
-2.18388e-06
-3.86276e-06
-4.93222e-06
5.94404e-06
-1.01182e-06
-6.59449e-07
-5.31003e-06
5.6931e-06
-5.70936e-06
-5.45118e-06
9.33585e-08
5.35782e-06
1.04642e-06
-5.52539e-06
4.47897e-06
-5.72056e-06
5.66175e-06
5.88099e-08
3.65372e-06
2.63875e-06
-1.78698e-07
-9.25848e-07
-3.43374e-06
-3.4338e-06
-1.31225e-06
-6.10668e-06
6.23385e-07
-5.65349e-06
5.12277e-06
1.06954e-06
-4.76026e-06
-5.34398e-06
4.95993e-07
-5.45306e-06
3.17016e-06
6.18682e-06
-5.03001e-06
-1.15681e-06
1.05734e-06
4.96521e-06
-4.38244e-06
-2.07586e-06
-6.05294e-06
6.05294e-06
6.05377e-06
-5.82101e-06
-2.32753e-07
3.49168e-07
-5.73473e-06
-4.84327e-06
5.47515e-06
-6.31881e-07
-1.91971e-06
8.91616e-07
5.64035e-06
-5.66782e-06
2.74659e-08
5.9227e-06
6.41308e-08
5.9855e-06
6.82631e-08
9.04528e-06
-5.77175e-06
-1.55163e-07
-5.064e-06
4.15343e-06
5.67894e-06
9.68626e-08
5.96726e-06
-5.93315e-06
-3.41058e-08
-5.13228e-08
-8.24701e-08
6.22917e-07
-5.11668e-06
4.49377e-06
-1.79986e-07
-7.83558e-06
1.87397e-06
4.2295e-07
-5.26622e-06
-5.70869e-06
5.62169e-06
8.70005e-08
5.69641e-06
-5.11878e-07
-2.66095e-06
-3.53892e-06
-7.98038e-06
5.91577e-07
-3.20133e-06
-9.47808e-07
2.39664e-08
5.86822e-06
-5.22394e-06
-5.62185e-06
-5.63103e-06
1.46606e-07
5.48442e-06
7.94974e-06
1.1238e-06
4.58145e-06
2.30383e-06
5.54421e-06
-2.46615e-06
5.79074e-06
-3.28645e-07
1.32794e-05
-9.75685e-06
-9.08633e-06
-2.91176e-06
-3.13775e-06
-7.33162e-08
6.17269e-06
-5.78307e-06
-3.8962e-07
5.85051e-06
1.34997e-07
6.76864e-07
-5.60909e-06
-4.16192e-06
4.78483e-06
5.67264e-06
4.92234e-08
4.45594e-06
1.97513e-06
5.95118e-06
2.2151e-07
5.94571e-06
-5.86044e-06
-8.52708e-08
-2.67659e-06
-3.79099e-06
-2.67817e-07
5.47579e-06
1.01867e-07
-6.3069e-06
4.93015e-06
-3.88372e-06
-8.26472e-08
1.24695e-07
4.80832e-06
-5.22179e-06
4.13473e-07
8.78577e-07
5.06546e-06
8.06892e-06
-7.84783e-06
2.80772e-06
3.55454e-06
-5.69399e-06
5.62713e-06
6.68572e-08
-1.31396e-07
-3.30909e-06
1.81136e-06
1.49773e-06
-5.92839e-08
6.1864e-06
-6.1864e-06
6.98676e-06
-4.05054e-06
-2.93622e-06
-5.12854e-06
-8.60273e-07
4.32461e-06
2.05128e-06
5.91728e-06
3.38972e-08
-5.57889e-06
5.53522e-06
3.51445e-08
-5.57036e-06
4.53228e-06
6.3069e-06
-6.26549e-06
1.59795e-07
7.36493e-06
-6.5207e-06
5.70347e-06
-6.0764e-06
5.66316e-06
-1.27941e-07
5.11231e-06
-5.53176e-06
5.50259e-06
2.91693e-08
2.59006e-07
4.43815e-06
-4.69716e-06
-5.03447e-06
4.15804e-06
-3.77278e-07
5.26595e-06
7.15167e-07
-5.03397e-08
-4.86801e-06
-8.50126e-07
-7.28859e-06
4.612e-06
7.77596e-09
-5.54616e-06
-5.90637e-06
-2.80162e-07
7.91165e-06
-4.2746e-06
5.68453e-08
-1.0232e-06
6.2908e-06
-5.2676e-06
-2.68775e-06
-6.21339e-07
5.51012e-06
-5.5697e-06
5.95799e-08
-5.70347e-06
5.65474e-06
2.4525e-06
3.50437e-06
-5.95686e-06
5.92918e-06
-1.12086e-06
4.92751e-07
5.26372e-06
5.81449e-06
5.61393e-07
6.34291e-07
7.6955e-07
-6.18399e-06
1.37263e-07
-4.90973e-06
5.5866e-06
-2.84356e-06
3.43513e-06
5.24915e-07
-5.15859e-06
4.63367e-06
-4.16249e-08
1.09602e-07
-5.14634e-06
-5.85232e-06
5.74519e-06
1.07126e-07
-5.61455e-06
5.84538e-07
3.66317e-06
3.3236e-06
-3.15961e-06
6.47889e-06
-3.31929e-06
6.49237e-06
-6.06112e-06
-4.31256e-07
1.61316e-07
3.99673e-06
-5.57144e-06
-5.95867e-08
5.65488e-06
8.28196e-09
2.79647e-06
-9.85116e-07
7.19838e-06
-6.46671e-06
5.16221e-06
7.90443e-07
3.25739e-07
-5.74168e-06
8.73667e-07
8.80414e-08
-4.99777e-06
6.41179e-06
-5.18153e-06
5.2276e-06
-3.18208e-07
-4.9762e-06
5.29441e-06
-5.62751e-06
5.86013e-06
-6.95025e-08
-8.52525e-06
6.81265e-07
-3.60513e-08
5.52029e-06
1.06838e-07
-5.2131e-06
-5.72034e-06
5.69632e-06
2.40216e-08
6.84487e-06
-3.97468e-06
-2.87018e-06
-4.80069e-06
-4.31815e-07
5.2325e-06
-1.29406e-08
-5.65783e-06
1.21652e-07
-6.1152e-07
6.04232e-06
-5.4308e-06
-5.53943e-06
5.5669e-06
-8.03858e-06
-1.17365e-06
-7.77623e-06
7.58145e-06
1.94777e-07
4.43889e-06
2.25659e-06
5.19586e-06
4.65853e-07
-5.66171e-06
5.5212e-06
-2.27156e-07
4.4519e-06
2.2221e-06
-3.94098e-06
1.25323e-06
-5.57977e-06
4.84759e-06
-5.51525e-06
-7.49136e-06
7.46416e-06
2.72037e-08
6.76798e-06
-5.4322e-06
5.51921e-06
-1.6618e-08
3.39301e-07
-5.14719e-06
4.80789e-06
-8.32195e-08
-7.40814e-06
6.68888e-06
-6.68888e-06
-3.04355e-06
5.73856e-06
-2.69502e-06
-5.52399e-06
5.52399e-06
5.64836e-06
-4.99356e-06
-6.54801e-07
5.25368e-06
1.24797e-06
5.88622e-06
-4.82888e-06
5.82041e-06
-6.52389e-08
-4.55673e-06
-7.30018e-07
5.28675e-06
-7.40003e-06
7.42509e-06
-2.50622e-08
6.82532e-06
-4.10857e-06
-2.71675e-06
9.97729e-07
4.88849e-06
-7.4775e-06
7.44007e-06
3.74225e-08
-1.2853e-09
-5.44234e-08
7.37894e-06
-7.32452e-06
-7.44898e-06
7.44898e-06
-8.87076e-08
5.59883e-06
7.99334e-06
-7.4516e-06
-5.41741e-07
-7.48213e-06
7.42771e-06
7.47572e-06
-7.43758e-06
-3.81376e-08
-5.44698e-06
-1.2272e-07
6.37125e-06
-8.49717e-08
7.42598e-06
-7.34101e-06
7.42831e-06
-7.44228e-06
1.39703e-08
-5.61443e-06
7.38972e-06
-1.0779e-08
-5.71356e-06
5.66248e-06
5.10787e-08
-7.3883e-06
7.41488e-06
-2.65854e-08
5.65907e-06
-5.51246e-06
-7.46236e-06
7.37739e-06
5.72296e-06
-1.81887e-06
2.72568e-06
3.56512e-06
-4.1379e-06
-3.15069e-06
-7.43644e-06
7.43644e-06
-7.47052e-06
-1.1612e-08
6.91575e-06
-1.26768e-06
-5.64807e-06
-4.8757e-06
3.31178e-06
1.86399e-07
7.40159e-06
-7.42448e-06
2.28917e-08
5.44799e-06
-5.44259e-06
-5.39599e-09
7.63219e-06
-7.43402e-06
-1.98177e-07
7.36317e-06
3.84204e-08
7.34962e-06
7.63621e-08
-1.50966e-08
-5.50889e-06
-6.81709e-06
3.75162e-06
3.06547e-06
-5.50113e-06
5.53628e-06
7.38647e-06
-2.32951e-08
7.75728e-07
5.01501e-06
3.97227e-06
-1.51977e-06
-7.45158e-06
-1.07833e-08
6.07736e-06
3.60658e-06
-6.14544e-06
-9.35849e-07
-7.5894e-06
5.54392e-06
-5.57592e-06
3.19929e-08
-2.56946e-07
-7.51928e-06
5.77286e-06
-6.44782e-08
6.41897e-06
-4.39194e-06
-2.02702e-06
-5.55598e-06
7.3977e-06
-7.3977e-06
5.2924e-06
6.78239e-08
-5.36022e-06
5.69714e-06
-7.41325e-06
7.40354e-06
9.70982e-09
7.36089e-06
-7.43176e-06
7.08701e-08
4.68625e-06
-6.2018e-06
-1.97464e-08
-7.36107e-06
7.38081e-06
7.3441e-06
-7.36385e-06
-2.45906e-07
7.82736e-06
-5.8815e-06
6.37023e-06
-6.65378e-06
4.61506e-06
-1.16995e-07
7.58116e-06
6.37639e-07
3.28461e-06
6.1339e-08
6.85441e-06
-1.99477e-08
5.9328e-06
-5.91285e-06
-5.04109e-08
-7.43104e-06
-4.64569e-08
6.09913e-06
-6.10086e-07
-5.48905e-06
-7.38158e-06
7.38158e-06
4.33536e-06
-3.73267e-06
-7.44276e-06
7.42328e-06
1.94805e-08
5.68395e-06
-5.68395e-06
5.53421e-06
-8.62269e-08
7.39168e-06
-7.40355e-06
1.18702e-08
-7.13488e-06
1.95094e-06
7.41928e-09
-5.49055e-06
5.48314e-06
5.95481e-06
-4.97935e-08
7.40727e-06
6.84465e-08
4.49331e-06
7.67075e-07
-5.26038e-06
7.42986e-06
-4.01421e-08
5.77145e-06
-5.77145e-06
7.38261e-06
-7.35697e-06
-2.56481e-08
-5.64497e-06
5.60347e-06
4.15069e-08
7.43909e-06
-7.41652e-06
-2.25721e-08
-7.39379e-06
7.39379e-06
1.10009e-06
5.17653e-06
1.74587e-07
-5.35112e-06
-7.44337e-06
7.42401e-06
1.93532e-08
-2.74064e-08
-5.5735e-06
5.54158e-06
2.3391e-09
6.91841e-06
-1.30834e-06
-5.61008e-06
4.7796e-06
7.36388e-06
-7.38419e-06
2.0306e-08
5.69092e-06
6.07956e-06
8.57015e-08
5.2067e-06
7.55096e-06
-1.43687e-07
7.33973e-06
2.41483e-08
5.40083e-06
-5.40083e-06
-2.84356e-06
7.46774e-06
-7.4091e-06
-2.26665e-08
7.40524e-06
-7.37734e-06
-2.7896e-08
1.4474e-07
-7.54578e-06
7.40104e-06
7.75652e-07
-7.46453e-06
-7.4299e-06
7.41711e-06
1.27924e-08
5.36396e-06
-5.36119e-06
-2.77454e-09
5.64836e-06
-4.98499e-06
4.98499e-06
7.35461e-06
-1.48757e-08
-5.51458e-06
-5.14719e-06
5.19586e-06
5.72124e-06
-5.94865e-08
-1.67101e-08
5.86002e-07
-7.30424e-06
7.40403e-06
-7.40637e-06
2.33533e-09
1.77331e-07
5.18663e-06
1.70803e-07
5.92833e-06
5.57782e-06
-4.36087e-08
-7.4133e-06
7.40473e-06
8.57315e-09
7.34797e-06
-7.36844e-06
2.04678e-08
-7.40669e-06
-3.60717e-08
7.38656e-06
-7.36716e-06
-1.93967e-08
5.57724e-06
1.06712e-07
7.39119e-06
3.20958e-08
-9.27018e-09
7.37459e-06
3.01393e-08
-1.1246e-09
-5.46254e-06
-7.48699e-06
7.88446e-08
-5.54105e-06
5.54105e-06
6.8124e-08
6.85029e-06
-5.63056e-06
1.07383e-06
3.87214e-08
7.38959e-06
3.07422e-07
-5.32373e-06
5.01631e-06
5.12663e-08
7.39771e-06
7.05749e-06
-7.69751e-06
5.57186e-06
1.99582e-07
7.3441e-06
-5.70485e-08
5.23358e-06
-5.38837e-06
2.71792e-08
5.30871e-06
-8.15407e-07
-7.36245e-06
7.36245e-06
-7.40191e-06
-4.14591e-08
4.99356e-06
-5.17581e-06
1.8225e-07
-7.39771e-06
5.45259e-06
-5.44517e-06
7.38756e-06
3.64581e-08
-7.39102e-06
-6.57317e-06
4.57396e-06
-7.42252e-06
7.41019e-06
1.23345e-08
5.04716e-06
4.74038e-07
5.49055e-06
3.34324e-08
-7.33867e-06
7.38894e-06
-5.02692e-08
-5.57412e-06
5.52453e-06
4.95907e-08
-7.36216e-06
2.34933e-08
5.55316e-06
-1.15753e-08
3.08189e-07
-5.74087e-06
5.43268e-06
7.36042e-06
-7.39298e-06
3.25618e-08
5.98743e-06
-6.2676e-06
7.35961e-06
-7.35881e-06
-8.02126e-10
-4.70405e-06
4.70405e-06
-5.79132e-06
5.79132e-06
-7.35117e-06
-1.09942e-08
-3.43513e-06
4.07277e-06
-7.37217e-06
7.36133e-06
1.08412e-08
5.74353e-08
7.379e-06
4.59769e-06
-4.07277e-06
-4.59769e-06
4.8567e-06
4.88116e-06
-5.61118e-06
6.72829e-06
-3.98743e-06
-2.74086e-06
-7.39857e-06
-3.13328e-08
-1.06735e-06
-4.8567e-06
5.92405e-06
7.38931e-06
2.77992e-08
-5.59825e-06
5.18858e-06
7.4105e-06
-7.39554e-06
-1.49646e-08
-7.36705e-06
-5.54811e-06
5.57282e-06
-1.71986e-07
-1.97198e-08
7.40619e-06
7.37525e-06
-5.48314e-06
-7.55101e-06
-4.42998e-06
5.66171e-06
-1.23173e-06
-7.33457e-06
-2.65004e-08
7.36562e-06
8.96542e-09
4.29578e-06
-4.38799e-06
9.22077e-08
8.44097e-09
5.17581e-06
-5.38353e-06
2.07718e-07
3.39195e-06
3.45291e-06
-7.39524e-06
-2.72875e-08
-5.60064e-06
7.33324e-06
-7.32712e-06
-6.11365e-09
7.38641e-06
2.37758e-08
-7.40778e-06
7.39982e-06
7.96273e-09
5.66228e-06
5.57724e-06
-7.35204e-06
7.33598e-06
1.60587e-08
7.40393e-06
-7.40068e-06
-3.24099e-09
-5.506e-06
5.57186e-06
7.34855e-06
-7.34855e-06
2.92261e-08
7.41085e-06
-4.64003e-06
-9.90533e-07
7.364e-06
-3.58075e-09
-9.47205e-07
5.03067e-06
-4.08346e-06
7.34511e-06
-7.33875e-06
-6.35941e-09
2.24657e-08
7.37523e-06
7.33177e-06
-7.33828e-06
6.50381e-09
-7.41742e-06
-7.39078e-06
-4.45053e-06
6.3478e-09
7.39719e-06
-7.74013e-09
-7.37071e-06
7.37845e-06
-7.34906e-06
7.33304e-06
1.60209e-08
-7.39494e-06
-1.28377e-08
-5.5981e-06
-5.40621e-06
1.78471e-08
7.38742e-06
1.23981e-08
-7.3424e-06
7.3393e-06
3.10041e-09
-7.34745e-06
2.75952e-08
7.31986e-06
7.39273e-06
1.77787e-08
-7.36986e-06
-2.56829e-08
-5.3756e-06
-2.52305e-08
7.3891e-06
-7.39366e-06
4.56003e-09
7.34518e-06
-7.35292e-06
-7.36038e-06
7.35023e-06
1.01497e-08
7.34205e-06
-7.3361e-06
-5.94949e-09
5.53615e-06
4.8987e-09
7.39155e-06
1.23761e-08
-7.38125e-06
-1.943e-08
-7.40836e-06
5.57282e-06
-7.34598e-06
7.33135e-06
1.46299e-08
4.87572e-06
-5.19392e-06
-7.32526e-06
7.35271e-06
-2.74548e-08
7.34795e-06
-7.3589e-06
1.09568e-08
-1.79079e-08
-7.38782e-06
-7.12353e-09
-1.91373e-08
-6.52141e-06
4.62699e-06
-1.25953e-08
7.34518e-06
-1.21561e-08
-7.81985e-09
-7.39405e-06
6.23191e-09
2.82698e-06
6.21272e-06
-9.0397e-06
-1.53106e-06
7.38916e-06
-6.31e-11
-7.37523e-06
1.35916e-08
7.36799e-06
-7.37974e-06
-1.39163e-08
-5.55453e-06
-7.40141e-06
7.35763e-09
2.58026e-08
7.36588e-06
-1.17386e-09
3.49419e-08
-7.27615e-06
7.24121e-06
7.39934e-06
-7.39556e-06
-3.78096e-09
-5.65368e-06
1.01365e-06
7.38509e-06
-7.37215e-06
-1.29405e-08
-7.38996e-06
-5.47933e-06
-2.88931e-07
7.34049e-06
-7.33469e-06
-5.79547e-09
3.8527e-08
-7.28307e-06
7.24454e-06
-7.3975e-06
7.38371e-06
1.37887e-08
-5.59327e-06
5.54717e-06
4.61015e-08
6.51323e-09
-7.39744e-06
-3.97147e-09
-5.62406e-06
1.16656e-06
4.4575e-06
-7.38777e-06
-9.72968e-09
7.39691e-06
2.42536e-09
-7.38479e-06
-1.07635e-08
-2.93741e-08
-7.3979e-06
4.6647e-10
-5.31958e-06
-6.21591e-07
5.94117e-06
4.24988e-06
3.10568e-08
-7.36799e-06
5.54826e-06
-2.37352e-08
-7.34009e-06
7.34009e-06
-1.41946e-08
7.39336e-06
3.55302e-09
-5.85384e-09
1.1472e-08
1.18099e-08
7.39616e-06
-2.7999e-09
4.36517e-09
7.39424e-06
-7.3943e-06
5.89942e-11
5.33727e-06
-5.33727e-06
-7.37898e-06
7.36312e-06
1.58548e-08
7.35236e-06
-7.34481e-06
-7.54965e-09
-1.03696e-08
7.39153e-06
4.62903e-09
7.39189e-06
2.34901e-09
-2.76927e-09
7.39263e-06
7.3854e-06
-7.38949e-06
4.09128e-09
-7.45666e-06
-7.36179e-06
-1.71844e-08
5.69145e-06
-6.97601e-08
7.37877e-06
6.62374e-09
6.18741e-08
7.38439e-06
-7.37629e-06
-8.09962e-09
-5.27481e-06
5.27481e-06
4.12859e-08
7.35251e-06
-7.33892e-06
7.3507e-06
-1.17756e-08
7.38283e-06
1.5689e-09
5.85582e-08
5.51926e-06
7.37408e-06
-7.37131e-06
-2.76989e-09
-7.31596e-06
-2.29636e-08
7.3532e-06
-7.35922e-06
6.01636e-09
7.36932e-06
4.76267e-09
7.38295e-06
8.94074e-09
-7.31764e-08
-7.29753e-06
-1.23772e-08
-6.50199e-07
-4.95889e-06
7.34169e-06
-7.34881e-06
7.1175e-09
2.20817e-07
5.11645e-06
7.37314e-06
-7.36623e-06
-6.91002e-09
-6.53829e-09
-1.25766e-07
-6.13545e-06
6.26122e-06
-5.34072e-06
5.40138e-06
-6.0665e-08
-7.30728e-06
7.30962e-06
-2.33977e-09
7.36466e-06
8.477e-09
-7.3429e-06
-4.59095e-06
7.41793e-06
7.36753e-06
-7.35706e-06
-1.04714e-08
-7.37468e-06
7.37487e-06
-1.92686e-10
7.35345e-06
-7.34678e-06
-6.66971e-09
-7.14619e-07
-6.30716e-06
7.02178e-06
7.35998e-06
7.55127e-09
-7.31286e-06
5.57859e-09
7.36859e-06
-7.35915e-06
-9.44498e-09
5.53615e-06
-5.66961e-06
5.66961e-06
7.36586e-06
-7.35199e-06
-1.38691e-08
-1.42092e-08
7.36882e-06
-1.15557e-08
-5.54404e-06
7.35548e-06
1.03742e-08
-7.37401e-06
-1.37586e-08
-7.30166e-06
7.30553e-06
-3.86838e-09
7.37475e-06
4.02255e-09
1.24426e-07
7.30067e-06
-1.54266e-09
7.36787e-06
1.86846e-08
5.51865e-06
2.9612e-08
8.61505e-10
-7.30886e-06
7.19314e-09
5.62992e-07
2.04206e-08
2.37954e-07
7.34656e-06
-7.35345e-06
6.89117e-09
-7.29392e-06
7.3024e-06
-8.47427e-09
1.30338e-07
-5.5264e-06
5.39606e-06
9.87817e-07
-5.75656e-06
4.76875e-06
2.11085e-06
5.21814e-06
-5.21814e-06
7.34149e-06
-7.34149e-06
-6.04665e-06
3.38155e-09
-7.35542e-06
5.63417e-06
7.36627e-06
1.65591e-08
-1.39003e-06
-2.58338e-06
3.97342e-06
-7.30455e-06
1.06231e-08
-7.30874e-06
-2.37037e-07
3.12342e-06
-5.1542e-06
2.03078e-06
-5.04806e-09
4.98505e-08
7.30286e-06
2.05683e-08
5.53259e-06
-7.37666e-06
1.55092e-08
7.34694e-06
4.68664e-06
-5.71843e-06
1.0318e-06
4.76975e-06
-1.64633e-06
-9.17126e-09
-7.33989e-06
7.37773e-06
-7.32788e-06
-7.35666e-06
-7.28429e-06
7.27737e-06
6.91542e-09
1.61546e-09
7.35971e-06
7.33388e-06
7.61316e-09
6.70138e-06
-4.447e-06
-2.25438e-06
-2.63873e-08
5.59825e-06
7.35773e-06
1.15928e-08
6.69885e-06
-7.41347e-06
4.96778e-08
7.30269e-06
-8.66923e-09
-7.33731e-06
-7.29278e-06
8.49266e-09
-5.35772e-06
1.70011e-08
5.62875e-06
-4.51284e-06
-1.11591e-06
7.32083e-06
-7.32147e-06
6.39972e-10
-8.50191e-09
2.11221e-06
-2.96915e-06
-2.78222e-06
5.75137e-06
7.33443e-06
-7.34573e-06
1.12952e-08
5.84584e-06
-5.77801e-06
-2.08567e-08
5.5981e-06
-4.80753e-06
3.41749e-06
7.32705e-06
-7.33442e-06
7.37115e-09
7.36914e-06
-7.31947e-06
-5.52016e-06
1.82891e-07
-5.54129e-06
5.53464e-06
6.64658e-09
5.38353e-06
-5.50929e-06
1.16616e-07
7.29827e-06
-5.58951e-06
5.423e-06
-1.97359e-07
7.35779e-06
-7.34887e-06
-8.92029e-09
5.72932e-06
-5.47359e-06
-2.55731e-07
7.33388e-06
-4.42414e-09
-7.33798e-06
-5.42432e-06
1.81061e-08
6.79875e-07
4.16671e-06
-4.84658e-06
-7.27499e-06
7.2671e-06
7.89042e-09
7.32236e-06
2.55837e-08
-4.6378e-06
-9.73381e-07
5.32126e-08
7.30024e-06
7.34568e-06
-7.3628e-06
1.71141e-08
7.33662e-06
-1.35615e-08
-7.31356e-06
-5.73863e-06
-9.67043e-07
7.34941e-06
1.52581e-08
7.81284e-06
-1.60013e-06
-4.43942e-08
7.34204e-06
-7.29765e-06
7.33888e-06
6.80333e-09
-7.28532e-06
1.03299e-08
-7.30659e-06
-5.22218e-08
-1.40366e-08
7.244e-06
-7.22997e-06
9.52127e-09
7.33903e-06
7.37011e-06
-7.31689e-06
-7.34694e-06
-2.7828e-08
5.60064e-06
-7.65414e-09
5.55554e-06
-2.8763e-07
-5.26791e-06
7.45816e-08
5.48096e-06
-7.25433e-06
7.24029e-06
-7.3459e-06
-1.5894e-08
4.66322e-06
9.65524e-07
-2.78957e-08
5.68221e-06
-5.65432e-06
-4.70624e-06
-3.93781e-06
4.61769e-06
-6.14036e-06
7.58575e-07
5.38179e-06
7.33594e-06
5.58833e-09
-7.34434e-06
7.27968e-08
7.30493e-06
7.32491e-06
-7.32599e-06
1.07746e-09
7.34092e-06
-7.31908e-06
-2.18396e-08
-7.35085e-06
4.8007e-09
-1.06307e-08
-5.54652e-06
5.55715e-06
1.06123e-09
7.34916e-06
-5.09917e-06
1.49232e-06
-7.34119e-06
7.33711e-06
4.08652e-09
-7.26477e-06
7.25611e-06
8.65164e-09
7.09467e-08
6.00675e-06
-5.83216e-06
4.40095e-06
-1.05173e-07
-3.80261e-08
7.34615e-06
-7.30813e-06
-6.55117e-06
3.58202e-06
7.33338e-06
6.49452e-09
-7.34259e-06
7.34102e-06
1.89565e-08
-6.86192e-06
6.91139e-08
6.79281e-06
1.14604e-08
-7.27623e-06
7.3265e-06
-7.31879e-06
-7.7043e-09
-2.31553e-07
7.36997e-06
-7.13842e-06
-1.0967e-08
-1.50569e-06
6.89659e-06
-5.39091e-06
-5.52016e-06
-6.12683e-06
7.33111e-06
-4.05989e-09
6.42557e-08
7.30489e-06
7.1469e-06
7.4002e-06
-7.39451e-06
-5.68688e-09
-5.67404e-10
-5.55481e-06
5.55537e-06
-7.33531e-06
7.33034e-06
4.97319e-09
1.48179e-07
-5.52378e-06
5.3756e-06
7.34502e-06
-7.34194e-06
-3.07663e-09
-5.68739e-06
5.6595e-06
7.32341e-06
-7.31777e-06
-5.63318e-09
2.05337e-08
7.32039e-06
-7.89575e-08
7.36242e-06
-7.34005e-06
7.77889e-08
-5.41494e-06
7.33962e-06
-7.33837e-06
-1.24424e-09
7.33607e-06
4.28689e-09
-7.33898e-06
7.29853e-06
1.55185e-08
-7.31404e-06
1.74751e-09
7.34058e-06
-7.32004e-06
-1.73952e-08
-5.55865e-06
5.57605e-06
3.94089e-06
-5.79957e-06
1.85868e-06
-1.2374e-06
-5.62452e-06
-5.38661e-06
-1.21331e-06
-4.73062e-06
-7.33156e-06
4.21899e-08
7.28937e-06
-5.59262e-06
5.55865e-06
3.39649e-08
-1.70164e-06
-4.50016e-06
-7.32782e-06
6.54212e-06
-7.31265e-06
7.32551e-06
-1.28529e-08
-6.11196e-06
6.07898e-07
5.50406e-06
5.8324e-06
-4.48208e-06
-1.35031e-06
-7.33822e-06
1.46789e-08
7.32354e-06
5.5671e-06
-5.49785e-06
1.53205e-08
7.31118e-06
-7.33903e-06
7.44071e-09
7.33265e-06
7.33166e-06
2.38276e-08
-1.21121e-09
-7.33707e-06
-2.36474e-08
-7.31755e-06
-7.31999e-06
5.56052e-06
-5.49141e-06
-3.11398e-08
1.56693e-06
4.85204e-06
-5.02527e-06
5.02527e-06
6.35729e-08
7.30653e-06
-8.31733e-06
-6.76736e-06
6.76679e-06
7.34157e-06
5.55647e-06
-5.51688e-06
-7.33022e-06
7.30657e-06
-6.1953e-06
6.34348e-06
7.32515e-06
-7.31876e-06
-6.39674e-09
8.84144e-09
7.33285e-06
-7.41854e-06
5.58263e-06
-5.60003e-06
-7.3282e-06
1.22427e-08
2.7591e-06
7.34615e-06
-7.33722e-06
-8.92778e-09
-7.34137e-06
7.3255e-06
-7.31939e-06
-6.10942e-09
-7.32425e-06
-7.31426e-09
7.30881e-06
-7.28642e-06
-5.60342e-06
6.7359e-06
7.31919e-06
-7.31677e-06
-2.41862e-09
-1.29036e-08
7.31143e-06
-5.59262e-06
4.84658e-06
-5.25299e-06
4.06411e-07
-9.0136e-06
9.0136e-06
7.33809e-06
7.33953e-06
-1.85794e-08
1.2253e-08
-7.33757e-06
7.36291e-06
-2.53381e-08
7.32329e-06
-7.31717e-06
-6.119e-09
-6.07736e-06
5.78843e-06
2.25302e-08
7.31951e-06
-7.33814e-06
1.97802e-08
7.31836e-06
-7.31671e-06
7.33252e-06
-7.32269e-06
-5.61932e-06
-7.33206e-06
2.44384e-08
7.30762e-06
-5.6277e-06
-1.57823e-08
5.49295e-06
-5.53498e-06
4.20356e-08
7.31369e-06
-7.31985e-06
6.16417e-09
1.35229e-07
-7.33194e-06
7.3198e-06
1.21352e-08
7.32702e-06
-5.37198e-06
-5.33387e-06
-9.045e-08
7.33665e-06
-7.33665e-06
-3.77203e-08
5.57387e-06
-7.33265e-06
7.32192e-06
-7.31582e-06
-6.10583e-09
7.33564e-06
-4.08107e-08
-7.32635e-06
-5.45331e-06
-6.82146e-07
-5.58951e-06
4.38313e-06
-4.89571e-06
5.12578e-07
-1.09814e-06
-4.73315e-06
5.83128e-06
7.30853e-06
-7.28919e-06
4.73426e-06
-5.5264e-06
-1.57478e-08
-7.32247e-06
7.32585e-06
-7.31978e-06
-6.07528e-09
5.62813e-06
-5.6557e-06
-1.54937e-06
-1.02111e-06
2.57048e-06
-5.83852e-06
5.88723e-06
5.64845e-06
-5.57387e-06
-2.22228e-08
-5.4774e-06
5.49962e-06
-2.54652e-08
-5.436e-06
5.46147e-06
1.83883e-08
-5.69465e-06
5.67627e-06
5.20741e-08
-5.71759e-06
5.66552e-06
2.63234e-08
-5.60354e-06
5.57722e-06
-1.10916e-08
-5.48387e-06
5.49496e-06
-1.30867e-08
-5.47931e-06
5.4924e-06
3.29987e-06
-2.22313e-06
-1.07674e-06
4.8658e-06
3.5591e-08
7.31056e-06
5.36464e-06
-5.39375e-06
2.9113e-08
1.723e-08
-7.32298e-06
7.30575e-06
7.34188e-06
-7.34188e-06
7.24467e-06
-1.86751e-09
-7.2428e-06
-2.4305e-08
-7.30592e-06
7.32139e-06
-7.31502e-06
-6.37126e-09
-4.55023e-06
-5.97514e-06
-1.36823e-07
4.79784e-06
9.31474e-07
7.33599e-06
-7.3262e-06
-9.79251e-09
-5.58434e-06
5.80186e-06
2.42514e-08
7.31632e-06
-4.0242e-06
-2.52697e-06
5.35198e-08
5.25707e-06
-5.31059e-06
-3.75367e-06
-6.34314e-07
-1.25936e-06
-7.80562e-07
2.03992e-06
5.50721e-06
5.50812e-06
5.74928e-06
5.74921e-06
5.7093e-06
5.63681e-06
-2.56225e-08
-5.5229e-06
5.54852e-06
5.5253e-06
-6.65132e-09
-2.17695e-06
7.32374e-06
-7.30651e-06
-1.80688e-07
5.89068e-06
-7.3461e-06
-5.01571e-06
6.19936e-06
7.23483e-06
6.50099e-09
-7.24133e-06
7.35148e-06
-1.4829e-08
-7.33573e-06
2.62563e-08
7.30948e-06
-5.53247e-06
-5.54652e-06
5.54622e-06
-5.57184e-06
-5.04796e-06
6.10014e-06
-1.05218e-06
-1.30807e-08
-7.31898e-06
3.82213e-06
-4.76933e-06
1.20957e-08
-7.33089e-06
-7.32228e-06
-1.94818e-06
-2.85935e-06
-7.30915e-06
-1.38324e-08
5.61194e-06
1.75049e-06
4.26584e-06
7.31431e-06
-7.30868e-06
-5.62949e-09
5.57689e-06
-3.69449e-06
-1.8824e-06
-2.65459e-06
1.39523e-06
-3.0764e-06
6.65842e-06
-2.66832e-06
5.54735e-06
-2.87903e-06
2.19469e-09
7.33224e-06
-7.28215e-06
7.31939e-06
-7.32367e-06
4.27605e-09
-4.14612e-06
1.76908e-06
2.37704e-06
-2.44822e-08
-5.52126e-06
5.54574e-06
7.66735e-06
-3.39592e-06
-4.27143e-06
5.50161e-09
7.23917e-06
-1.59338e-06
-2.55274e-06
-5.34966e-06
5.40318e-06
4.56299e-06
3.02811e-07
-5.32236e-06
-1.12227e-08
-5.52919e-06
5.54041e-06
5.71238e-06
-5.53505e-06
-3.40159e-06
-1.28887e-06
4.69046e-06
-7.30819e-06
7.31032e-06
-2.13357e-09
-5.40389e-06
5.48168e-06
7.31633e-06
-7.32107e-06
-4.89079e-06
-1.34477e-07
-7.37062e-06
7.34273e-06
-3.81651e-06
5.53141e-09
7.31998e-06
6.38582e-06
-3.52928e-06
-2.85654e-06
5.40678e-06
-1.02364e-06
6.03798e-06
-7.80911e-07
5.53724e-06
-5.56173e-06
7.30631e-06
-7.3067e-06
3.94641e-10
5.544e-06
-5.55522e-06
6.72189e-09
-7.30262e-06
7.2959e-06
-3.08095e-06
-7.35562e-07
1.22765e-08
-5.6157e-06