/*--------------------------------*- C++ -*----------------------------------*\
  =========                 |
  \\      /  F ield         | OpenFOAM: The Open Source CFD Toolbox
   \\    /   O peration     | Website:  https://openfoam.org
    \\  /    A nd           | Version:  12
     \\/     M anipulation  |
\*---------------------------------------------------------------------------*/
FoamFile
{
    format      ascii;
    class       surfaceScalarField;
    location    "0.17";
    object      phi;
}
// * * * * * * * * * * * * * * * * * * * * * * * * * * * * * * * * * * * * * //

dimensions      [0 3 -1 0 0 0 0];

internalField   nonuniform List<scalar> 
6438
(
-2.77177e-08
3.44934e-06
-3.42162e-06
-3.01923e-08
4.00708e-06
-3.97689e-06
-3.75841e-06
-6.37075e-07
4.39548e-06
3.56603e-06
-3.91354e-06
3.47511e-07
5.47974e-06
-4.28066e-06
-1.19908e-06
1.24346e-06
4.23628e-06
-4.27126e-06
5.12859e-07
-3.70326e-06
3.67307e-06
4.00071e-06
-4.77635e-06
7.75639e-07
3.71938e-06
-4.36132e-06
6.41934e-07
-3.59676e-06
4.37423e-06
-7.77463e-07
8.6332e-07
-3.9424e-06
3.07908e-06
-4.45343e-06
8.56669e-07
3.41808e-06
1.56958e-06
-4.98766e-06
3.21106e-06
-3.23878e-06
-1.81553e-07
3.76361e-06
-3.58206e-06
-4.74158e-06
4.5982e-06
1.43388e-07
-3.59007e-06
4.35944e-06
-7.69372e-07
-4.45068e-06
8.60615e-07
1.41286e-06
2.98678e-06
-4.39964e-06
-1.02933e-06
-6.7311e-07
1.70244e-06
-2.19275e-07
3.94183e-06
-3.72256e-06
-3.65582e-06
-5.92121e-07
4.24794e-06
-4.47546e-06
1.96335e-06
2.51211e-06
-3.88356e-06
3.66429e-06
-3.44892e-06
4.19237e-06
-7.4345e-07
-4.21696e-06
5.6114e-07
3.9965e-06
-3.13318e-06
-3.63012e-06
-6.79608e-07
4.30973e-06
-4.39099e-06
9.42072e-07
3.36371e-06
-4.22685e-06
8.63136e-07
1.88423e-08
-4.11605e-06
4.0972e-06
4.02806e-06
-4.05141e-06
2.33474e-08
-3.99074e-06
6.71121e-07
3.31962e-06
-5.38945e-06
8.71895e-07
4.51755e-06
3.78967e-06
-3.77083e-06
3.82365e-06
-2.57623e-07
2.48081e-06
3.4744e-06
-5.95521e-06
-1.22715e-06
4.64523e-06
-3.55929e-06
3.91018e-06
-3.50894e-07
-4.12389e-06
4.08603e-06
3.78562e-08
-1.71339e-06
3.12626e-06
3.68724e-06
3.21429e-08
-4.43236e-06
4.34222e-06
9.01427e-08
3.97113e-06
-6.07412e-07
-2.98287e-06
2.80132e-06
-5.15194e-06
8.71278e-07
3.91676e-06
3.77078e-07
-4.29384e-06
-3.04296e-06
-9.47781e-07
-5.58692e-07
-3.6639e-06
4.15706e-06
-4.93163e-07
-2.72903e-06
3.93862e-06
-1.20959e-06
3.95357e-06
-3.95357e-06
1.2421e-06
2.99828e-06
3.9443e-07
-3.39271e-06
1.75988e-06
8.54917e-07
-2.6148e-06
3.34841e-06
7.03194e-07
-4.05161e-06
3.23279e-06
-1.26944e-06
-1.87458e-06
-3.27736e-06
-3.90421e-08
3.48548e-06
-3.44644e-06
-4.29903e-06
4.29903e-06
-4.45304e-06
4.49842e-06
-4.53855e-08
1.79446e-07
3.31141e-06
-3.49086e-06
1.23865e-08
-4.05687e-06
4.04448e-06
3.76462e-06
-3.75223e-06
-4.10487e-06
4.74749e-07
-4.11564e-06
-3.1672e-07
-3.54007e-06
3.89029e-06
-3.50216e-07
3.91368e-07
3.38902e-06
-3.78038e-06
-4.16207e-06
4.00287e-06
1.59198e-07
4.0574e-06
-4.0574e-06
3.7712e-06
2.29507e-07
-2.47759e-06
-1.88372e-06
3.53349e-06
7.44886e-07
-4.27838e-06
-3.46666e-06
-6.57229e-07
3.07924e-06
2.37981e-06
-5.45905e-06
-4.7695e-06
3.05611e-06
-3.045e-06
-1.7245e-06
4.20031e-06
-6.66823e-07
2.50346e-06
-7.4358e-07
3.40207e-06
3.88199e-07
-3.79027e-06
-4.19465e-06
-2.58384e-07
-5.93986e-07
-1.02093e-06
-3.2781e-06
4.54695e-06
-4.54695e-06
-3.00671e-06
-1.15536e-06
-2.7259e-07
-5.11686e-06
-3.92325e-06
3.9075e-06
1.57505e-08
1.41205e-07
-3.97421e-06
3.833e-06
-4.36994e-07
3.83906e-06
3.92773e-06
1.00334e-07
-4.10273e-06
-6.38851e-07
-4.14228e-06
4.24757e-06
-1.05288e-07
4.32546e-06
-2.42065e-06
-1.90481e-06
3.87965e-06
-3.73845e-06
7.96219e-08
4.35231e-06
-2.21499e-06
-2.13732e-06
2.47557e-06
1.8499e-06
3.99329e-06
-3.99329e-06
-3.06303e-06
4.39384e-06
-1.33081e-06
-3.84905e-06
1.85155e-07
-5.26688e-07
-3.11719e-06
3.64387e-06
-3.60781e-06
1.41146e-07
-3.86566e-06
8.02624e-07
3.33498e-06
7.34385e-07
-4.06936e-06
-2.34402e-07
3.56938e-06
-3.48339e-06
4.02453e-06
-5.41138e-07
-3.70092e-06
1.41632e-07
2.55463e-06
1.79768e-06
3.85577e-06
-7.76695e-07
1.65764e-07
3.7878e-06
-3.32761e-06
-2.802e-07
3.47872e-06
7.40284e-07
-4.219e-06
-1.92351e-06
-1.65923e-06
3.58273e-06
2.53259e-06
-3.20291e-07
-2.2123e-06
-4.11605e-06
8.35599e-07
4.12518e-06
-4.96077e-06
-1.91277e-06
8.83435e-07
4.11606e-06
7.63151e-08
4.46416e-06
-2.30959e-06
-2.15457e-06
1.49446e-06
2.9697e-06
4.16514e-06
-6.86427e-07
5.08237e-06
-2.60156e-06
-3.76598e-06
1.11731e-08
3.7548e-06
-5.38611e-06
5.49127e-07
4.83698e-06
-6.18637e-08
-3.73934e-06
3.8012e-06
4.11265e-06
2.29567e-07
-3.17259e-06
3.13354e-06
-3.78502e-06
3.86101e-06
-7.59887e-08
3.83268e-06
-3.89455e-06
3.95525e-06
-3.95525e-06
3.89446e-06
1.12622e-07
3.90191e-06
-9.03625e-07
3.84888e-06
-3.66944e-06
-3.39084e-06
2.86416e-06
3.4981e-08
3.73696e-06
-3.77194e-06
4.39734e-06
-3.08119e-06
-1.31614e-06
-4.05687e-06
-5.86472e-08
4.56672e-08
-3.74893e-06
-3.75672e-06
2.1665e-07
4.30941e-08
3.74658e-06
3.62579e-06
-3.23442e-06
-3.73919e-06
2.558e-07
3.79334e-06
-1.06098e-07
-1.35458e-07
3.30134e-06
-3.16588e-06
2.59871e-06
1.79863e-06
-3.88775e-06
8.35289e-07
3.05246e-06
3.96373e-06
-2.51115e-08
-5.24159e-06
4.76125e-07
4.76547e-06
-5.30905e-08
-3.71967e-06
3.77276e-06
2.47239e-06
6.01974e-08
2.36747e-07
3.72699e-06
3.68812e-06
3.08379e-07
3.81042e-06
-3.86351e-06
-3.97083e-06
-1.31905e-07
4.05066e-06
-4.35292e-06
3.02261e-07
-3.62116e-06
-1.44816e-07
-4.40734e-06
1.9106e-06
2.49674e-06
4.16261e-10
3.80997e-06
1.31864e-07
-3.58635e-06
4.17072e-06
-5.84374e-07
-3.9517e-06
3.40461e-06
5.47081e-07
-5.34517e-07
1.3815e-06
-8.46986e-07
-1.23937e-06
-3.15162e-06
-3.97421e-06
-3.13422e-08
3.79596e-06
1.16459e-06
3.22925e-06
-6.35796e-08
-3.86513e-06
-1.84367e-08
-8.20048e-08
-4.225e-06
3.56991e-06
6.55096e-07
-2.47823e-07
3.15e-06
6.21207e-07
6.17704e-06
-2.70264e-06
-1.30689e-06
-3.1438e-06
3.8742e-06
5.35235e-08
-3.3256e-06
1.4021e-06
-1.4937e-06
-2.35738e-06
3.85108e-06
-1.33354e-06
-3.11989e-06
-2.16832e-06
5.24756e-06
-3.99637e-06
1.31244e-07
-3.77253e-06
3.78691e-06
-1.43792e-08
-3.11575e-06
2.98029e-06
-4.54193e-08
-3.69735e-06
3.74277e-06
-4.0657e-06
6.93262e-08
3.39009e-06
-4.0339e-06
6.43804e-07
3.77722e-06
-3.82264e-06
3.3754e-06
-1.27768e-06
-2.09771e-06
-5.10599e-06
1.8084e-06
3.2976e-06
3.46074e-06
3.32596e-07
2.85824e-06
1.73995e-06
8.34799e-07
3.71215e-06
-9.91757e-07
-3.55519e-06
-4.11551e-06
4.07852e-06
3.69873e-08
-4.10413e-06
-1.13707e-08
-4.08353e-06
-2.0603e-08
1.28222e-08
1.06286e-06
-5.9442e-06
4.88134e-06
-4.41313e-06
5.24873e-06
3.48483e-06
-3.44985e-06
3.72422e-06
1.55438e-07
3.03596e-07
3.0718e-06
-3.73934e-06
-3.39021e-06
3.37458e-06
4.20071e-07
-3.79465e-06
-1.89592e-08
-8.05494e-07
5.93332e-06
-5.12783e-06
5.62802e-06
-4.05844e-06
-1.70812e-06
2.56304e-06
-1.08317e-06
-3.32417e-06
-2.95241e-06
-2.15358e-06
-3.73817e-06
-2.32656e-07
-3.76471e-06
3.7641e-06
6.04721e-10
-5.94004e-07
3.53344e-06
-2.93944e-06
-4.043e-06
4.07146e-06
-2.84591e-08
-4.00068e-06
-4.23244e-08
-5.14036e-06
3.21027e-07
4.81934e-06
-3.59141e-06
-2.3297e-07
3.82438e-06
4.02852e-06
4.29465e-08
-7.15853e-07
-4.40163e-06
1.60527e-06
2.79636e-06
2.49465e-08
-2.3297e-06
-2.07193e-06
-5.50146e-08
-4.11537e-08
-3.67596e-06
3.71711e-06
-3.77977e-06
1.88365e-07
3.41603e-06
4.58174e-07
3.93689e-06
-3.77112e-06
3.74116e-06
-3.78232e-06
3.72568e-06
1.07008e-07
1.83205e-06
3.79597e-06
3.88393e-06
-7.33928e-07
-3.055e-07
-5.08061e-06
-2.21754e-07
3.07065e-06
-2.8489e-06
-3.98155e-06
-1.91266e-08
-3.98094e-06
-6.14474e-10
4.01257e-06
-3.98386e-06
-2.87154e-08
3.9693e-06
4.32682e-08
-3.71967e-06
9.19219e-07
-1.26215e-06
3.42928e-07
-4.49624e-06
2.63219e-06
1.86405e-06
2.01162e-06
-4.03387e-06
2.02225e-06
-3.52157e-06
-3.27481e-07
-3.7521e-06
3.73348e-06
1.86153e-08
-3.90268e-06
3.76423e-06
1.38445e-07
-3.11746e-07
3.99391e-06
-3.68216e-06
-3.87468e-06
9.49092e-08
-4.30246e-06
5.36532e-06
-3.98257e-07
-3.48949e-06
-4.04502e-06
3.73328e-06
-3.16911e-06
-2.91328e-07
3.46044e-06
-2.96795e-06
3.94387e-06
2.54354e-08
-2.69935e-06
-7.22862e-07
8.01403e-07
-7.85414e-08
-3.70702e-08
1.45193e-07
-5.13305e-06
4.98786e-06
-2.87608e-06
-1.39519e-06
-3.99881e-06
3.91766e-06
8.1151e-08
-3.93759e-06
-6.12204e-08
-1.41524e-06
8.80722e-07
3.71881e-06
9.16088e-08
3.96985e-06
-6.5844e-07
3.93419e-06
-3.92993e-06
-4.26117e-09
-1.05151e-08
-3.64758e-06
3.6581e-06
4.11925e-06
-2.95466e-06
-4.96621e-08
4.08123e-06
2.30609e-06
-6.38732e-06
4.04372e-06
-4.04372e-06
6.26848e-07
3.67218e-06
-1.4272e-06
-2.52636e-06
-3.22425e-06
3.8867e-06
-6.62446e-07
-4.28524e-07
-3.47415e-06
3.72236e-06
-3.73287e-06
-3.56492e-06
5.98589e-08
3.50506e-06
6.84061e-07
-3.61322e-06
2.92916e-06
-3.74121e-06
3.70225e-06
3.89603e-08
2.39042e-06
1.72883e-06
-1.1703e-07
-6.05832e-07
-2.24936e-06
-2.24688e-06
-8.62483e-07
-3.99484e-06
4.08486e-07
-3.69735e-06
3.35063e-06
7.00031e-07
-3.10947e-06
-3.4943e-06
3.25191e-07
-3.56516e-06
2.07146e-06
4.04517e-06
-3.28843e-06
-7.56743e-07
6.90642e-07
3.24625e-06
-2.86101e-06
-1.35595e-06
-3.95657e-06
3.95657e-06
3.95902e-06
-3.80749e-06
-1.51525e-07
2.27795e-07
-3.74937e-06
-3.16773e-06
3.58161e-06
-4.13883e-07
-1.25429e-06
5.81178e-07
3.68768e-06
-3.70571e-06
1.80314e-08
3.87595e-06
4.17122e-08
3.91487e-06
4.41523e-08
5.91328e-06
-3.77322e-06
-1.01464e-07
-3.31111e-06
2.71711e-06
3.71344e-06
6.37809e-08
3.90348e-06
-3.88183e-06
-2.16481e-08
-3.4113e-08
-5.39839e-08
4.08065e-07
-3.34761e-06
2.93954e-06
-1.16888e-07
-5.1247e-06
1.22578e-06
2.74445e-07
-3.44217e-06
-3.73274e-06
3.67575e-06
5.69876e-08
3.72399e-06
-3.33901e-07
-1.73833e-06
-2.31308e-06
-5.21863e-06
3.86619e-07
-2.09474e-06
-6.20257e-07
1.66876e-08
3.83563e-06
-3.41555e-06
-3.67596e-06
-3.68166e-06
9.59959e-08
3.58567e-06
5.19702e-06
7.36301e-07
2.99683e-06
1.5016e-06
3.62521e-06
-1.61359e-06
3.78488e-06
-2.14976e-07
8.68808e-06
-6.38199e-06
-5.9442e-06
-1.90523e-06
-2.04647e-06
-4.83138e-08
4.03657e-06
-3.78204e-06
-2.54529e-07
3.8273e-06
8.75612e-08
4.4243e-07
-3.66668e-06
-2.72101e-06
3.12907e-06
3.7088e-06
3.23676e-08
2.91134e-06
1.28897e-06
3.89147e-06
1.45107e-07
3.88852e-06
-3.83281e-06
-5.57133e-08
-1.75256e-06
-2.47429e-06
-1.75512e-07
3.58013e-06
6.66439e-08
-4.12404e-06
3.22408e-06
-2.54002e-06
-5.45264e-08
8.10301e-08
3.14756e-06
-3.41566e-06
2.68104e-07
5.75389e-07
3.31131e-06
5.27494e-06
-5.12975e-06
1.83535e-06
2.32171e-06
-3.72267e-06
3.67941e-06
4.32631e-08
-8.5536e-08
-2.16546e-06
1.18753e-06
9.77931e-07
-3.903e-08
4.04442e-06
-4.04442e-06
4.57498e-06
-2.6536e-06
-1.92138e-06
-3.34842e-06
-5.65112e-07
2.82606e-06
1.33908e-06
3.86994e-06
2.15214e-08
-3.64758e-06
3.61898e-06
2.31254e-08
-3.6421e-06
2.962e-06
4.12404e-06
-4.0972e-06
1.03917e-07
4.81429e-06
-4.26516e-06
3.727e-06
-3.96741e-06
3.70268e-06
-8.3706e-08
3.34246e-06
-3.61729e-06
3.59839e-06
1.89027e-08
1.68418e-07
2.90365e-06
-3.07207e-06
-3.29027e-06
2.71869e-06
-2.46299e-07
3.44051e-06
4.69669e-07
-3.32896e-08
-3.18387e-06
-5.55323e-07
-4.76963e-06
3.01707e-06
6.01111e-09
-3.62717e-06
-3.86175e-06
-1.83275e-07
5.17107e-06
-2.79127e-06
3.71346e-08
-6.68945e-07
4.11247e-06
-3.44352e-06
-1.75717e-06
-4.08286e-07
3.60281e-06
-3.64128e-06
3.84779e-08
-3.727e-06
3.69819e-06
1.60401e-06
2.28996e-06
-3.89397e-06
3.87414e-06
-7.26579e-07
3.21184e-07
3.44243e-06
3.79957e-06
3.71151e-07
4.14806e-07
5.04413e-07
-4.04448e-06
8.92311e-08
-3.20953e-06
3.65196e-06
-1.85955e-06
2.24617e-06
3.42747e-07
-3.37223e-06
3.02949e-06
-2.77665e-08
6.98163e-08
-3.36275e-06
-3.82718e-06
3.75679e-06
7.03888e-08
-3.67029e-06
3.81865e-07
2.39742e-06
2.17756e-06
-2.066e-06
4.23457e-06
-2.16857e-06
4.24515e-06
-3.96286e-06
-2.82284e-07
1.06646e-07
2.61204e-06
-3.64282e-06
-3.88453e-08
3.69737e-06
5.31489e-09
1.82721e-06
-6.39685e-07
4.70613e-06
-4.23001e-06
3.37098e-06
5.19307e-07
2.11865e-07
-3.75364e-06
5.69775e-07
5.66929e-08
-3.26622e-06
4.19109e-06
-3.38846e-06
3.41709e-06
-2.07907e-07
-3.25333e-06
3.46124e-06
-3.67958e-06
3.83226e-06
-4.5351e-08
-5.57442e-06
4.46596e-07
-2.39392e-08
3.60973e-06
6.9678e-08
-3.40705e-06
-3.7406e-06
3.72526e-06
1.534e-08
4.48065e-06
-2.60399e-06
-1.87666e-06
-3.13867e-06
-2.82206e-07
3.42087e-06
-8.34634e-09
-3.69736e-06
7.9536e-08
-4.0048e-07
3.95081e-06
-3.55033e-06
-3.62169e-06
3.63972e-06
-5.25725e-06
-7.66864e-07
-5.08452e-06
4.95696e-06
1.27563e-07
2.9011e-06
1.47313e-06
3.39507e-06
3.05018e-07
-3.70009e-06
3.60877e-06
-1.48026e-07
2.90874e-06
1.4507e-06
-2.57784e-06
8.20664e-07
-3.64863e-06
3.16878e-06
-3.60578e-06
-4.89797e-06
4.88024e-06
1.77341e-08
4.42237e-06
-3.55048e-06
3.60939e-06
-1.10056e-08
2.22059e-07
-3.36618e-06
3.14412e-06
-5.44165e-08
-4.84355e-06
4.37368e-06
-4.37368e-06
-1.99163e-06
3.7528e-06
-1.76117e-06
-3.61167e-06
3.61167e-06
3.69442e-06
-3.2659e-06
-4.2852e-07
3.43206e-06
8.15516e-07
3.84861e-06
-3.15797e-06
3.8066e-06
-4.25036e-08
-2.97856e-06
-4.77055e-07
3.45561e-06
-4.8384e-06
4.85491e-06
-1.65164e-08
4.46779e-06
-2.68997e-06
-1.77782e-06
6.52213e-07
3.19639e-06
-4.88904e-06
4.86452e-06
2.45145e-08
-1.21075e-09
-3.57099e-08
4.82456e-06
-4.78885e-06
-4.87061e-06
4.87061e-06
-5.79022e-08
3.66071e-06
5.22736e-06
-4.87256e-06
-3.54807e-07
-4.89213e-06
4.85642e-06
4.88776e-06
-4.86292e-06
-2.48353e-08
-3.56093e-06
-8.03506e-08
4.16624e-06
-5.57269e-08
4.85546e-06
-4.79973e-06
4.85695e-06
-4.86612e-06
9.1643e-09
-3.67174e-06
4.83162e-06
-7.06051e-09
-3.73643e-06
3.70315e-06
3.32746e-08
-4.83073e-06
4.84822e-06
-1.74934e-08
3.7e-06
-3.60401e-06
-4.8792e-06
4.82347e-06
3.74241e-06
-1.1903e-06
1.78251e-06
2.32996e-06
-2.70477e-06
-2.06485e-06
-4.86229e-06
4.86229e-06
-4.88456e-06
-7.57203e-09
4.52156e-06
-8.28948e-07
-3.69262e-06
-3.18572e-06
2.1648e-06
1.21728e-07
4.83944e-06
-4.85446e-06
1.50237e-08
3.56175e-06
-3.55917e-06
-2.58479e-09
4.99021e-06
-4.86053e-06
-1.29673e-07
4.81417e-06
2.52683e-08
4.80531e-06
5.01455e-08
-9.95952e-09
-3.60171e-06
-4.45649e-06
2.45204e-06
2.00445e-06
-3.59666e-06
3.61979e-06
4.82949e-06
-1.53226e-08
5.06706e-07
3.27818e-06
2.59778e-06
-9.93774e-07
-4.87221e-06
-6.9833e-09
3.9732e-06
2.35749e-06
-4.01671e-06
-6.12529e-07
-4.96189e-06
3.62601e-06
-3.64758e-06
2.15765e-08
-1.68182e-07
-4.91634e-06
3.7756e-06
-4.21168e-08
4.19691e-06
-2.87067e-06
-1.32624e-06
-3.63359e-06
4.83689e-06
-4.83689e-06
3.46261e-06
4.62466e-08
-3.50886e-06
3.72586e-06
-4.84707e-06
4.84069e-06
6.37835e-09
4.81266e-06
-4.85914e-06
4.64833e-08
3.06133e-06
-4.05309e-06
-1.29583e-08
-4.81295e-06
4.8259e-06
4.80183e-06
-4.81478e-06
-1.60278e-07
5.11723e-06
-3.84236e-06
4.16338e-06
-4.35293e-06
3.01939e-06
-7.65039e-08
4.95674e-06
4.16577e-07
2.14646e-06
4.24398e-08
4.47912e-06
-1.34138e-08
3.87639e-06
-3.86297e-06
-3.30863e-08
-4.85862e-06
-3.042e-08
3.98948e-06
-3.99958e-07
-3.58952e-06
-4.82635e-06
4.82635e-06
2.83246e-06
-2.43803e-06
-4.86632e-06
4.85354e-06
1.27821e-08
3.71672e-06
-3.71672e-06
3.61753e-06
-5.57759e-08
4.83295e-06
-4.84071e-06
7.76692e-09
-4.6666e-06
1.27639e-06
4.36652e-09
-3.58994e-06
3.58558e-06
3.89351e-06
-3.24976e-08
4.84299e-06
4.47733e-08
2.93815e-06
5.01263e-07
-3.43941e-06
4.85788e-06
-2.62613e-08
3.77485e-06
-3.77485e-06
4.82703e-06
-4.81021e-06
-1.68257e-08
-3.6917e-06
3.66388e-06
2.78257e-08
4.86387e-06
-4.84915e-06
-1.4719e-08
-4.83439e-06
4.83439e-06
7.21874e-07
3.38568e-06
1.14477e-07
-3.50015e-06
-4.86672e-06
4.85402e-06
1.26927e-08
-1.80685e-08
-3.64482e-06
3.62354e-06
2.46783e-09
4.52304e-06
-8.53477e-07
-3.66956e-06
3.12525e-06
4.81477e-06
-4.82808e-06
1.33096e-08
3.72177e-06
3.97414e-06
5.60255e-08
3.40659e-06
4.93715e-06
-9.41642e-08
4.79887e-06
1.58951e-08
3.53203e-06
-3.53203e-06
-1.85955e-06
4.88273e-06
-4.84431e-06
-1.48327e-08
4.84189e-06
-4.82368e-06
-1.82115e-08
9.48985e-08
-4.93382e-06
4.83892e-06
5.07663e-07
-4.88134e-06
-4.85791e-06
4.84952e-06
8.39447e-09
3.5074e-06
-3.5052e-06
-2.1983e-09
3.69442e-06
-3.26027e-06
3.26027e-06
4.80865e-06
-9.77592e-09
-3.60515e-06
-3.36618e-06
3.39507e-06
3.7413e-06
-3.90494e-08
-1.09916e-08
3.83396e-07
-4.77571e-06
4.84103e-06
-4.84263e-06
1.60058e-09
1.15353e-07
3.39205e-06
1.11883e-07
3.8776e-06
3.64513e-06
-2.7602e-08
-4.84715e-06
4.84147e-06
5.68548e-09
4.80439e-06
-4.81793e-06
1.35455e-08
-4.84269e-06
-2.36315e-08
4.82962e-06
-4.81687e-06
-1.27426e-08
3.64695e-06
6.97727e-08
4.83251e-06
2.1026e-08
-6.12867e-09
4.82178e-06
1.96865e-08
-7.34341e-10
-3.57258e-06
-4.89524e-06
5.16889e-08
-3.62282e-06
3.62282e-06
4.56841e-08
4.47735e-06
-3.68167e-06
7.03115e-07
2.54663e-08
4.83149e-06
2.01758e-07
-3.48409e-06
3.28233e-06
3.37824e-08
4.83683e-06
4.61483e-06
-5.03283e-06
3.64417e-06
1.30681e-07
4.80183e-06
-3.69934e-08
3.42267e-06
-3.52227e-06
1.70632e-08
3.47121e-06
-5.33056e-07
-4.81383e-06
4.81383e-06
-4.83957e-06
-2.71446e-08
3.2659e-06
-3.38346e-06
1.17557e-07
-4.83683e-06
3.56435e-06
-3.55999e-06
4.83014e-06
2.38814e-08
-4.83234e-06
-4.29925e-06
2.99237e-06
-4.85309e-06
4.84498e-06
8.10508e-09
3.29806e-06
3.10708e-07
3.58994e-06
2.17291e-08
-4.79818e-06
4.83119e-06
-3.30102e-08
-3.64629e-06
3.61404e-06
3.2253e-08
-4.81353e-06
1.53536e-08
3.63051e-06
-6.96915e-09
2.00144e-07
-3.75272e-06
3.55257e-06
4.81246e-06
-4.83383e-06
2.13668e-08
3.91465e-06
-4.09793e-06
4.81192e-06
-4.81139e-06
-5.30424e-10
-3.0738e-06
3.0738e-06
-3.78572e-06
3.78572e-06
-4.80637e-06
-7.16371e-09
-2.24617e-06
2.66275e-06
-4.82018e-06
4.81308e-06
7.10062e-09
3.77347e-08
4.82456e-06
3.0055e-06
-2.66275e-06
-3.0055e-06
3.17392e-06
3.18997e-06
-3.66703e-06
4.40487e-06
-2.60919e-06
-1.79568e-06
-4.8374e-06
-2.05189e-08
-6.9618e-07
-3.17392e-06
3.8701e-06
4.83131e-06
1.82056e-08
-3.6607e-06
3.39173e-06
4.84524e-06
-4.83543e-06
-9.80565e-09
-4.81672e-06
-3.62792e-06
3.64552e-06
-1.13488e-07
-1.29368e-08
4.84243e-06
4.82202e-06
-3.58558e-06
-4.93704e-06
-2.89799e-06
3.70009e-06
-8.02097e-07
-4.79555e-06
-1.73975e-08
4.81588e-06
5.90411e-09
2.80832e-06
-2.8695e-06
6.11756e-08
5.55187e-09
3.38346e-06
-3.51985e-06
1.36392e-07
2.22491e-06
2.25574e-06
-4.83523e-06
-1.78625e-08
-3.66297e-06
4.7947e-06
-4.79067e-06
-4.02323e-09
4.82941e-06
1.55725e-08
-4.84344e-06
4.83822e-06
5.21728e-09
3.70284e-06
3.64695e-06
-4.80702e-06
4.79646e-06
1.05666e-08
4.84094e-06
-4.83879e-06
-2.14955e-09
-3.60061e-06
3.64417e-06
4.80475e-06
-4.80475e-06
1.91888e-08
4.84534e-06
-3.03373e-06
-6.47942e-07
4.81478e-06
-2.31914e-09
-6.17995e-07
3.28829e-06
-2.67029e-06
4.80246e-06
-4.79831e-06
-4.15535e-09
1.47286e-08
4.82216e-06
4.79371e-06
-4.79801e-06
4.29218e-09
-4.84983e-06
-4.83234e-06
-2.91117e-06
4.19013e-09
4.8365e-06
-5.13718e-09
-4.81949e-06
4.82463e-06
-4.80506e-06
4.79455e-06
1.05116e-08
-4.83502e-06
-8.41312e-09
-3.65982e-06
-3.53499e-06
1.27258e-08
4.83006e-06
8.15987e-09
-4.80069e-06
4.79866e-06
2.02974e-09
-4.80398e-06
1.81098e-08
4.78587e-06
4.83359e-06
1.16448e-08
-4.81862e-06
-1.68133e-08
-3.51536e-06
-1.66762e-08
4.83123e-06
-4.83419e-06
2.96066e-09
4.80276e-06
-4.8079e-06
-4.81246e-06
4.80581e-06
6.64499e-09
4.80046e-06
-4.79657e-06
-3.88781e-09
3.61972e-06
3.10001e-09
4.83281e-06
8.13241e-09
-4.82605e-06
-1.27465e-08
-4.84373e-06
3.64552e-06
-4.80304e-06
4.79345e-06
9.59741e-09
3.18812e-06
-3.39603e-06
-4.78949e-06
4.80748e-06
-1.79904e-08
4.80437e-06
-4.81155e-06
7.18449e-09
-1.17934e-08
-4.83037e-06
-4.65236e-09
-1.25494e-08
-4.26471e-06
3.02534e-06
-8.25605e-09
4.80276e-06
-7.98487e-09
-5.1661e-09
-4.83444e-06
4.06768e-09
1.84983e-06
4.06072e-06
-5.91055e-06
-1.00043e-06
4.83123e-06
-7.49027e-13
-4.82216e-06
8.94311e-09
4.81741e-06
-4.82502e-06
-9.1658e-09
-3.63165e-06
-4.83925e-06
4.81006e-09
1.69792e-08
4.81597e-06
-7.3804e-10
2.29306e-08
-4.75743e-06
4.7345e-06
4.83792e-06
-4.83547e-06
-2.45571e-09
-3.69656e-06
6.62826e-07
4.8286e-06
-4.82015e-06
-8.45039e-09
-4.83177e-06
-3.58299e-06
-1.8895e-07
4.79945e-06
-4.79565e-06
-3.79827e-09
2.52644e-08
-4.76195e-06
4.73668e-06
-4.8367e-06
4.82769e-06
9.01306e-09
-3.65703e-06
3.62662e-06
3.04113e-08
4.21953e-09
-4.83664e-06
-2.606e-09
-3.67855e-06
7.63309e-07
2.91524e-06
-4.83035e-06
-6.35296e-09
4.83631e-06
1.61192e-09
-4.82839e-06
-7.07937e-09
-1.92936e-08
-4.83697e-06
3.31103e-10
-3.47853e-06
-4.03892e-07
3.88242e-06
2.78058e-06
2.03308e-08
-4.81741e-06
3.62758e-06
-1.3538e-08
-4.79922e-06
4.79922e-06
-9.2836e-09
4.834e-06
2.30867e-09
-3.83609e-09
7.54824e-09
7.78512e-09
4.83583e-06
-1.82452e-09
2.84304e-09
4.83456e-06
-4.83461e-06
4.57693e-11
3.48935e-06
-3.48935e-06
-4.82458e-06
4.8142e-06
1.03806e-08
4.80726e-06
-4.80234e-06
-4.92218e-09
-6.79791e-09
4.83281e-06
3.01935e-09
4.83303e-06
1.52981e-09
-1.79898e-09
4.83345e-06
4.82879e-06
-4.83145e-06
2.6608e-09
-4.87541e-06
-4.81335e-06
-1.1232e-08
3.72134e-06
-4.55887e-08
4.82448e-06
4.30832e-09
4.04017e-08
4.82814e-06
-4.82285e-06
-5.28976e-09
-3.44856e-06
3.44856e-06
2.71224e-08
4.80726e-06
-4.7984e-06
4.80612e-06
-7.72285e-09
4.82712e-06
1.01866e-09
3.54794e-08
3.60965e-06
4.82141e-06
-4.81957e-06
-1.83992e-09
-4.78335e-06
-1.50464e-08
4.80786e-06
-4.81179e-06
3.93186e-09
4.81828e-06
3.1233e-09
4.82719e-06
5.84288e-09
-4.78251e-08
-4.77167e-06
-7.52216e-09
-4.25329e-07
-3.24135e-06
4.80025e-06
-4.8049e-06
4.65653e-09
1.43408e-07
3.34594e-06
4.8208e-06
-4.81626e-06
-4.53317e-09
-4.26623e-09
-8.28801e-08
-4.00804e-06
4.09092e-06
-3.49178e-06
3.53167e-06
-3.98855e-08
-4.7777e-06
4.77924e-06
-1.54422e-09
4.81522e-06
5.57651e-09
-4.80095e-06
-3.0003e-06
4.85013e-06
4.81713e-06
-4.81028e-06
-6.85234e-09
-4.82179e-06
4.8219e-06
-1.18378e-10
4.808e-06
-4.80365e-06
-4.35038e-09
-4.67889e-07
-4.12395e-06
4.59184e-06
4.81216e-06
4.96554e-09
-4.78139e-06
3.69108e-09
4.81783e-06
-4.81166e-06
-6.16527e-09
3.61972e-06
-3.70706e-06
3.70706e-06
4.81603e-06
-4.80695e-06
-9.07974e-09
-9.32769e-09
4.81798e-06
-7.58536e-09
-3.62467e-06
4.80921e-06
6.81418e-09
-4.82134e-06
-9.01438e-09
-4.77402e-06
4.77657e-06
-2.55597e-09
4.82187e-06
2.61725e-09
8.16459e-08
4.77327e-06
-9.81635e-10
4.81739e-06
1.22318e-08
3.60846e-06
1.9117e-08
5.68247e-10
-4.77876e-06
4.74702e-09
3.67822e-07
1.34041e-08
1.5534e-07
4.80351e-06
-4.80801e-06
4.50032e-09
-4.76895e-06
4.77452e-06
-5.5644e-09
8.59869e-08
-3.61381e-06
3.52782e-06
6.45942e-07
-3.76397e-06
3.11803e-06
1.37853e-06
3.41332e-06
-3.41332e-06
4.80016e-06
-4.80016e-06
-3.94884e-06
2.20205e-09
-4.80922e-06
3.68361e-06
4.81627e-06
1.08464e-08
-9.07755e-07
-1.68935e-06
2.59711e-06
-4.77594e-06
6.98943e-09
-4.77855e-06
-1.55268e-07
2.04216e-06
-3.3692e-06
1.32704e-06
-3.29288e-09
3.2697e-08
4.77479e-06
1.16715e-08
3.61884e-06
-4.82316e-06
1.01589e-08
4.80367e-06
3.06434e-06
-3.73909e-06
6.74747e-07
3.11774e-06
-1.07558e-06
-6.01497e-09
-4.79904e-06
4.82389e-06
-4.7912e-06
-4.81002e-06
-4.76266e-06
4.75813e-06
4.52634e-09
1.08226e-09
4.81199e-06
4.79517e-06
4.99227e-09
4.38174e-06
-2.90862e-06
-1.47311e-06
-1.65296e-08
3.6607e-06
4.81066e-06
7.62221e-09
4.38021e-06
-4.8481e-06
3.26112e-08
4.77465e-06
-5.68011e-09
-4.79736e-06
-4.76826e-06
5.60187e-09
-3.50206e-06
1.02778e-08
3.68024e-06
-2.95099e-06
-7.29247e-07
4.78659e-06
-4.787e-06
4.05098e-10
-5.60424e-09
1.3815e-06
-1.9415e-06
-1.81837e-06
3.75987e-06
4.79554e-06
-4.80291e-06
7.36972e-09
3.81797e-06
-3.77172e-06
-1.2867e-08
3.65982e-06
-3.14266e-06
2.2349e-06
4.79069e-06
-4.7955e-06
4.80615e-09
4.81827e-06
-4.78566e-06
-3.60952e-06
1.20174e-07
-3.62342e-06
3.61865e-06
4.76353e-09
3.51985e-06
-3.60273e-06
7.65446e-08
4.77167e-06
-3.65714e-06
3.54523e-06
-1.29198e-07
4.81076e-06
-4.80493e-06
-5.83166e-09
3.74538e-06
-3.57725e-06
-1.68126e-07
4.79517e-06
-2.89984e-09
-4.79779e-06
-3.54659e-06
1.1596e-08
4.44847e-07
2.72434e-06
-3.16919e-06
-4.75657e-06
4.75141e-06
5.16639e-09
4.78756e-06
1.68136e-08
-3.0317e-06
-6.35323e-07
3.49334e-08
4.77306e-06
4.80275e-06
-4.814e-06
1.12476e-08
4.7969e-06
-8.85137e-09
-4.78182e-06
-3.74838e-06
-6.32215e-07
4.80523e-06
9.99245e-09
5.10965e-06
-1.04894e-06
-2.92035e-08
4.80053e-06
-4.77132e-06
4.79831e-06
4.43772e-09
-4.76338e-06
6.80564e-09
-4.77706e-06
-3.43266e-08
-9.1431e-09
4.73633e-06
-4.72718e-06
6.24291e-09
4.79851e-06
4.81891e-06
-4.78397e-06
-4.80367e-06
-1.74447e-08
3.66297e-06
-5.04818e-09
3.63279e-06
-1.86657e-07
-3.44613e-06
4.90481e-08
3.58374e-06
-4.74311e-06
4.73396e-06
-4.80294e-06
-1.04096e-08
3.04891e-06
6.31326e-07
-1.81314e-08
3.71467e-06
-3.69654e-06
-3.07796e-06
-2.5741e-06
3.01895e-06
-4.01415e-06
4.96998e-07
3.51716e-06
4.79645e-06
3.67059e-09
-4.80198e-06
4.77791e-08
4.77611e-06
4.78927e-06
-4.78999e-06
7.12633e-10
4.79974e-06
-4.78544e-06
-1.42986e-08
-4.80622e-06
3.18403e-09
-6.90938e-09
-3.6269e-06
3.6338e-06
7.11504e-10
4.8051e-06
-3.33347e-06
9.76088e-07
-4.79997e-06
4.79725e-06
2.71191e-09
-4.74989e-06
4.74421e-06
5.67168e-09
4.71345e-08
3.92371e-06
-3.80923e-06
2.8777e-06
-6.93794e-08
-2.50167e-08
4.80322e-06
-4.7782e-06
-4.28235e-06
2.34085e-06
4.79478e-06
4.24693e-09
-4.80081e-06
4.79976e-06
1.24074e-08
-4.48553e-06
4.47216e-08
4.44081e-06
7.53935e-09
-4.75742e-06
4.7903e-06
-4.78526e-06
-5.03225e-09
-1.52228e-07
4.81863e-06
-4.6664e-06
-7.19231e-09
-9.85702e-07
4.5096e-06
-3.52389e-06
-3.60952e-06
-3.99727e-06
4.79331e-06
-2.61962e-09
4.21794e-08
4.77609e-06
4.6739e-06
4.83873e-06
-4.83524e-06
-3.49044e-09
4.5088e-10
-3.63345e-06
3.633e-06
-4.79609e-06
4.79283e-06
3.26053e-09
9.69751e-08
-3.61233e-06
3.51536e-06
4.80242e-06
-4.80044e-06
-1.98219e-09
-3.71838e-06
3.70025e-06
4.7883e-06
-4.78461e-06
-3.69236e-09
1.34468e-08
4.7863e-06
-5.34862e-08
4.81377e-06
-4.79913e-06
4.8464e-08
-3.53932e-06
4.79892e-06
-4.79808e-06
-8.37183e-10
4.79655e-06
2.80041e-09
-4.79845e-06
4.77198e-06
1.01141e-08
-4.78209e-06
1.1475e-09
4.79952e-06
-4.78608e-06
-1.14769e-08
-3.63428e-06
3.64575e-06
2.57755e-06
-3.79214e-06
1.21459e-06
-8.05948e-07
-3.67959e-06
-3.52539e-06
-7.91651e-07
-3.09315e-06
-4.79364e-06
2.76993e-08
4.76594e-06
-3.65636e-06
3.63428e-06
2.2087e-08
-1.11273e-06
-2.94036e-06
-4.79111e-06
4.27707e-06
-4.78121e-06
4.78965e-06
-8.44088e-09
-3.99566e-06
3.96773e-07
3.59889e-06
3.8163e-06
-2.93233e-06
-8.83969e-07
-4.798e-06
9.64395e-09
4.78836e-06
3.64041e-06
-3.59474e-06
1.00584e-08
4.78024e-06
-4.79851e-06
4.88346e-09
4.79434e-06
4.7936e-06
1.5614e-08
-8.00699e-10
-4.7972e-06
-1.55838e-08
-4.78438e-06
-4.78603e-06
3.63619e-06
-3.59146e-06
-2.03994e-08
1.02517e-06
3.17174e-06
-3.28146e-06
3.28146e-06
4.17002e-08
4.77721e-06
-5.43855e-06
-4.42443e-06
4.42488e-06
4.80013e-06
3.6335e-06
-3.60696e-06
-4.79279e-06
4.77721e-06
-4.05143e-06
4.1484e-06
4.78942e-06
-4.78523e-06
-4.18677e-09
5.82115e-09
4.79443e-06
-4.85047e-06
3.64949e-06
-3.66097e-06
-4.7914e-06
8.0478e-09
1.80501e-06
4.80315e-06
-4.79731e-06
-5.83502e-09
-4.80002e-06
4.78966e-06
-4.78566e-06
-3.9948e-09
-4.78886e-06
-4.78042e-09
4.77866e-06
-4.76401e-06
-3.66368e-06
4.40397e-06
4.78552e-06
-4.78396e-06
-1.55943e-09
-8.45433e-09
4.78043e-06
-3.65636e-06
3.16925e-06
-3.43451e-06
2.65263e-07
-5.89704e-06
5.89704e-06
4.79786e-06
4.79879e-06
-1.21609e-08
8.05971e-09
-4.79736e-06
4.8141e-06
-1.67429e-08
4.78821e-06
-4.78419e-06
-4.01214e-09
-3.9732e-06
3.78425e-06
1.48295e-08
4.7857e-06
-4.79793e-06
1.29739e-08
4.78496e-06
-4.78385e-06
4.79419e-06
-4.78778e-06
-3.67435e-06
-4.79395e-06
1.60366e-08
4.77792e-06
-3.67954e-06
-1.0374e-08
3.59078e-06
-3.61775e-06
2.69727e-08
4.78192e-06
-4.78595e-06
4.03063e-09
8.87141e-08
-4.79388e-06
4.78592e-06
7.9593e-09
4.7909e-06
-3.51302e-06
-3.4885e-06
-5.80849e-08
4.797e-06
-4.797e-06
-2.44134e-08
3.64414e-06
-4.79434e-06
4.78731e-06
-4.78331e-06
-4.0039e-09
4.79625e-06
-2.67562e-08
-4.79012e-06
-3.56638e-06
-4.41656e-07
-3.65789e-06
2.86518e-06
-3.20034e-06
3.35157e-07
-7.17148e-07
-3.09496e-06
3.81211e-06
4.77849e-06
-4.76583e-06
3.09915e-06
-3.61381e-06
-1.03499e-08
-4.78765e-06
4.78989e-06
-4.78592e-06
-3.97419e-09
3.67988e-06
-3.69832e-06
-1.01139e-06
-6.68858e-07
1.68025e-06
-3.81702e-06
3.84917e-06
3.69318e-06
-3.64414e-06
-1.44151e-08
-3.58152e-06
3.59594e-06
-1.74995e-08
-3.55392e-06
3.57142e-06
1.20058e-08
-3.72505e-06
3.71304e-06
3.40848e-08
-3.73998e-06
3.7059e-06
1.72792e-08
-3.66435e-06
3.64707e-06
-6.9211e-09
-3.58657e-06
3.59349e-06
-7.81766e-09
-3.58358e-06
3.5914e-06
2.15648e-06
-1.45317e-06
-7.03313e-07
3.1813e-06
2.3413e-08
4.7798e-06
3.50656e-06
-3.52739e-06
2.08296e-08
1.12622e-08
-4.788e-06
4.77673e-06
4.80042e-06
-4.80042e-06
4.73684e-06
-1.04985e-09
-4.73579e-06
-1.60142e-08
-4.77677e-06
4.78696e-06
-4.78279e-06
-4.17066e-09
-2.97543e-06
-3.90653e-06
-8.9137e-08
3.137e-06
6.08376e-07
4.7966e-06
-4.7901e-06
-6.49515e-09
-3.65113e-06
3.79452e-06
1.59131e-08
4.78361e-06
-2.63211e-06
-1.65025e-06
3.59846e-08
3.43636e-06
-3.47235e-06
-2.45381e-06
-4.15687e-07
-8.23337e-07
-5.09493e-07
1.33283e-06
3.60191e-06
3.60247e-06
3.75969e-06
3.75995e-06
3.73377e-06
3.68534e-06
-1.68306e-08
-3.61113e-06
3.62796e-06
3.61347e-06
-5.00443e-09
-1.42287e-06
4.7885e-06
-4.77724e-06
-1.18446e-07
3.85172e-06
-4.80291e-06
-3.27863e-06
4.05427e-06
4.73064e-06
3.94594e-09
-4.73458e-06
4.80673e-06
-9.72911e-09
-4.79638e-06
1.72364e-08
4.77914e-06
-3.61738e-06
-3.6269e-06
3.62613e-06
-3.64296e-06
-3.3003e-06
3.98585e-06
-6.85551e-07
-8.57676e-09
-4.78538e-06
2.50124e-06
-3.11924e-06
7.90541e-09
-4.79317e-06
-4.78751e-06
-1.27339e-06
-1.86927e-06
-4.77894e-06
-9.05544e-09
3.66919e-06
1.14509e-06
2.79104e-06
4.78231e-06
-4.77862e-06
-3.68806e-09
3.64513e-06
-2.4138e-06
-1.23133e-06
-1.73592e-06
9.12584e-07
-2.01222e-06
4.35308e-06
-1.74445e-06
3.62621e-06
-1.88176e-06
1.53575e-09
4.79401e-06
-4.76121e-06
4.78564e-06
-4.78844e-06
2.79267e-09
-2.71038e-06
1.15572e-06
1.55466e-06
-1.59867e-08
-3.61011e-06
3.62609e-06
5.01252e-06
-2.21875e-06
-2.79378e-06
3.53052e-09
4.73331e-06
-1.04193e-06
-1.66845e-06
-3.49736e-06
3.53334e-06
2.98388e-06
1.97417e-07
-3.48073e-06
-7.36317e-09
-3.61499e-06
3.62235e-06
3.73398e-06
-3.61863e-06
-2.22313e-06
-8.43064e-07
3.06619e-06
-4.77836e-06
4.77974e-06
-1.38158e-09
-3.53308e-06
3.58154e-06
4.78362e-06
-4.78672e-06
-3.1983e-06
-8.31691e-08
-4.81923e-06
4.80102e-06
-2.4951e-06
3.60993e-09
4.78604e-06
4.17418e-06
-2.30693e-06
-1.86725e-06
3.53311e-06
-6.67922e-07
3.94752e-06
-5.11162e-07
3.62046e-06
-3.63645e-06
4.77713e-06
-4.77733e-06
1.9774e-10
3.62421e-06
-3.63157e-06
4.39246e-09
-4.77466e-06
4.77026e-06
-2.01398e-06
-4.81123e-07
9.53734e-09
-3.67322e-06
-4.78816e-06