/*--------------------------------*- C++ -*----------------------------------*\
  =========                 |
  \\      /  F ield         | OpenFOAM: The Open Source CFD Toolbox
   \\    /   O peration     | Website:  https://openfoam.org
    \\  /    A nd           | Version:  12
     \\/     M anipulation  |
\*---------------------------------------------------------------------------*/
FoamFile
{
    format      ascii;
    class       volVectorField;
    location    "0.17";
    object      U;
}
// * * * * * * * * * * * * * * * * * * * * * * * * * * * * * * * * * * * * * //

dimensions      [0 1 -1 0 0 0 0];

internalField   nonuniform List<vector> 
4428
(
(0.00129335 0.000491034 1.01428e-16)
(-0.00130946 0.000540884 -9.03823e-17)
(-0.00118385 0.000541879 0)
(-0.00123209 0.000520499 0)
(0.00118448 0.000983533 8.16388e-17)
(0.00123074 0.00101075 3.22987e-21)
(-0.00117795 0.000678403 0)
(-0.0013214 0.000470854 1.4641e-16)
(0.00127171 0.000520995 -2.49064e-16)
(0.00131247 0.000380131 9.9537e-17)
(-0.00120304 0.000418537 -1.73329e-16)
(0.00121177 0.000513591 -1.76861e-16)
(-0.00135926 0.000286102 -2.03657e-16)
(-0.00042179 0.00151901 -9.5815e-17)
(0.00127365 0.000494781 0)
(0.00116335 0.000426967 0)
(0.001317 0.000473965 0)
(-0.00120366 0.00041749 0)
(-0.00136706 0.000284669 0)
(0.00128753 0.000495209 0)
(0.000457351 0.000375766 -4.48034e-16)
(-0.00130403 0.000499812 -1.777e-16)
(-0.00123027 0.000524326 0)
(-0.00134206 0.000457214 0)
(-0.00129796 0.000495553 2.26615e-17)
(-0.00123044 0.000454898 0)
(-0.00124484 0.00066133 1.03356e-16)
(0.00125222 0.000403586 2.07802e-16)
(0.00116983 0.000576825 0)
(-0.00137651 0.000314026 0)
(0.00127484 0.000309252 0)
(-0.00131887 0.000497439 -1.84203e-16)
(0.0012952 0.000411962 -9.00189e-17)
(-0.00134148 0.000652515 -2.7742e-16)
(-1.30724e-05 0.00176159 4.69768e-17)
(-0.00131493 0.000513456 1.99861e-16)
(-0.00129054 0.000651447 -4.42486e-21)
(0.00119743 0.00161382 1.27042e-17)
(-0.000189253 0.0015273 -2.62231e-17)
(-0.00123451 0.000542287 0)
(0.00130034 0.000468178 0)
(0.00117732 0.000376696 0)
(0.00123587 0.000420564 9.24312e-17)
(-0.0013455 0.000430451 1.66056e-16)
(0.00129019 0.000406306 0)
(0.00105359 0.000395191 0)
(0.00123446 0.0011838 -9.97829e-17)
(-0.00122994 0.000598854 2.03142e-16)
(-0.00125037 0.00052773 2.24458e-16)
(-0.00128823 0.000568008 0)
(0.00129149 0.000542435 0)
(0.00115364 0.000556392 1.88121e-16)
(0.0013197 0.000378451 -9.13178e-17)
(0.00116994 0.000572452 0)
(0.00119699 0.000508669 -1.39783e-17)
(0.000779207 0.0003701 0)
(0.0011516 0.000549461 -9.29921e-17)
(-0.00125902 0.000409842 0)
(0.00107705 0.00115555 1.82959e-16)
(0.00126458 0.000432342 -1.82009e-16)
(0.00132265 0.000508555 1.67095e-16)
(-0.00132225 0.000420125 0)
(0.00115094 0.000457291 2.7995e-16)
(-0.00131598 0.000495215 9.26975e-17)
(-0.00131201 0.000514494 0)
(0.00120924 0.000531307 0)
(-0.00134235 0.000437674 1.73156e-16)
(-0.00124202 0.000530398 -1.85819e-16)
(0.00125018 0.000444891 -1.82184e-16)
(-0.00127469 0.000554841 -3.61906e-16)
(-0.00134762 0.000419171 -9.16125e-17)
(0.0012669 0.000577575 2.12651e-16)
(0.00137481 0.000602927 5.805e-17)
(-0.00122031 0.000508762 4.4695e-17)
(0.0012875 0.000451127 1.96648e-16)
(-2.28195e-05 0.00174052 -1.83293e-16)
(0.00131928 0.000605162 0)
(0.00135772 0.000531904 0)
(-0.00119077 0.000684045 -1.18143e-16)
(0.000924014 0.000436263 -4.34208e-21)
(0.00115791 0.000594885 -1.97537e-16)
(-0.00133649 0.000421946 0)
(0.00123859 0.000593928 -1.81062e-16)
(0.00125067 0.000520943 -1.72065e-16)
(0.00131744 0.000471563 3.18303e-16)
(-0.00143193 0.000451236 -2.54687e-16)
(-0.000168018 0.00196103 1.15142e-16)
(-0.00133526 0.000488863 0)
(-0.00131255 0.000500912 -9.60334e-17)
(0.00120023 0.000526769 2.0474e-17)
(0.00128917 0.000386296 8.36644e-17)
(0.00132168 0.000473095 -1.59367e-16)
(-0.00132879 0.000528479 0)
(-0.00131624 0.000490153 0)
(-0.00131232 0.000515245 9.81687e-17)
(-0.00127424 0.000534142 1.67119e-16)
(0.00130122 0.000516281 1.1353e-16)
(-0.00133454 0.000506729 -1.19902e-16)
(-0.00134928 0.000415394 9.287e-17)
(0.00121753 0.000657344 0)
(0.00122159 0.000556689 -2.2514e-17)
(0.00126194 0.000495175 0)
(0.00129397 0.000455739 0)
(0.00116914 0.000438725 -1.87985e-16)
(0.00114031 0.000535736 -1.03701e-16)
(0.00118986 0.00057542 2.49601e-21)
(0.0012624 0.000519696 1.90325e-16)
(-0.00129351 0.000620366 -1.22455e-16)
(0.00130374 0.000514854 -1.20822e-16)
(0.0012334 0.000609606 0)
(0.00126153 0.000418357 1.64695e-16)
(0.00126833 0.000487001 -1.94803e-16)
(-0.00122029 0.00050195 2.64039e-21)
(0.00120472 0.000457654 1.65963e-16)
(-0.000731172 0.000459895 1.15541e-16)
(-0.00134536 0.00040826 1.80232e-16)
(-0.000291906 0.00169467 0)
(0.00052367 0.000408553 5.24745e-17)
(-0.0013606 0.000449651 8.87646e-17)
(0.0013567 0.000527667 -1.12859e-16)
(0.00134834 0.000525047 2.11529e-16)
(-0.00119201 0.000689207 2.41275e-16)
(0.000877258 0.00143552 -1.96894e-16)
(0.00128468 0.000416422 -3.03617e-16)
(3.29895e-07 0.00176201 1.78758e-16)
(-0.00131713 0.000495378 0)
(-0.00133652 0.000447706 -2.72256e-16)
(0.00121537 0.000509058 9.95084e-17)
(-0.00131274 0.000535532 -3.04099e-16)
(-0.00131498 0.00051234 9.66762e-17)
(-0.00134671 0.000422929 -1.87132e-16)
(-0.00128916 0.000531783 0)
(0.00130099 0.000520208 2.24125e-16)
(0.00124524 0.000467533 0)
(0.00126326 0.00049249 0)
(0.00135013 0.000583016 6.54002e-21)
(0.0013318 0.000556709 -2.43668e-16)
(-0.00134253 0.000413569 -1.82387e-16)
(-0.00131801 0.000508157 -1.8355e-16)
(-0.00130501 0.000528974 1.43948e-16)
(-0.00129907 0.000627633 -1.23706e-16)
(-0.00131881 0.000476568 -9.67479e-17)
(0.00124354 0.000499016 0)
(0.00125116 0.000508296 -1.99428e-16)
(0.00130984 0.000490743 0)
(0.00123544 0.000475592 9.67642e-17)
(0.00132879 0.000599848 1.28473e-16)
(-3.295e-05 0.0012513 -9.13943e-17)
(0.00138474 0.000378571 2.88887e-16)
(-6.18026e-06 0.00175731 4.54406e-17)
(-0.00131626 0.000495469 -1.99512e-16)
(-0.000856121 0.000382272 1.00283e-16)
(0.00123768 0.000401258 -9.6171e-21)
(0.00137886 0.000474938 -2.48622e-16)
(-0.00131408 0.000512011 2.91593e-16)
(0.0013349 0.000498097 0)
(0.00121017 0.000814846 -1.77127e-16)
(0.00129948 0.000386374 -9.48479e-17)
(0.00127774 0.000465426 -1.78766e-16)
(-0.00132797 0.000431672 -9.1234e-17)
(-0.00130852 0.000544045 1.95446e-16)
(0.00127562 0.00050431 0)
(0.00137281 0.000427283 0)
(-0.000461342 0.000206623 -2.17177e-16)
(-0.00139097 0.000581862 1.19563e-16)
(-0.00134371 0.000417776 0)
(-0.00131191 0.000480652 0)
(0.00137058 0.000449633 0)
(-0.00131125 0.00050646 1.91491e-21)
(-0.00132168 0.000567857 9.36783e-17)
(-0.00134483 0.000440312 -9.37994e-17)
(0.00131768 0.000522767 3.97761e-21)
(-0.00132246 0.000497979 0)
(0.00118964 0.000501312 0)
(0.00121273 0.00157345 -1.16374e-17)
(-0.00140567 0.00058985 2.29077e-16)
(0.00132624 0.000478725 0)
(0.00115837 0.000584687 2.14589e-16)
(0.00124176 0.000525613 2.17939e-16)
(-0.00140463 0.000575505 1.14318e-16)
(-0.000161956 0.00177095 -7.05944e-21)
(-0.00127023 0.000523781 1.75078e-16)
(-0.00132579 0.000464596 1.91951e-16)
(0.00121347 0.000466127 0)
(-0.00131553 0.000495911 3.00571e-16)
(-0.00130795 0.000608024 -9.52169e-17)
(0.00130365 0.000505101 0)
(-0.00131223 0.000511015 0)
(0.00111526 0.000480967 3.4357e-16)
(0.00128474 0.000570206 0)
(0.00127285 0.000464401 0)
(0.00132944 0.000638361 2.58469e-17)
(0.0012929 0.000459066 0)
(0.00130956 0.000550925 -3.67872e-16)
(-0.00127542 0.00060366 0)
(-0.00127036 0.00059667 -1.80867e-16)
(-0.00126979 0.000595061 2.70924e-16)
(-0.00125311 0.000584241 8.88775e-17)
(0.00178831 0.00103602 1.48757e-16)
(-0.000402839 0.00187505 0)
(0.0012974 0.000590145 2.13763e-16)
(-0.00132479 0.0004795 -1.9408e-16)
(0.00102508 0.000548429 -1.90308e-16)
(-0.00133298 0.000431563 0)
(0.00118094 0.000457098 -1.76631e-16)
(0.00128298 0.000450811 -2.98058e-18)
(-0.00130855 0.000507955 9.32581e-17)
(-0.000290934 0.00203263 -1.77907e-16)
(-0.000640643 0.00176087 1.11841e-17)
(0.00087021 0.000456701 0)
(0.00131257 0.000564208 0)
(0.00141717 0.00050339 0)
(0.00130724 0.000549292 5.94395e-21)
(-0.00132256 0.000465493 0)
(0.00127809 0.000483327 0)
(-0.00128511 0.000590712 -1.40089e-16)
(-0.0012718 0.00058259 1.83784e-16)
(3.04724e-05 0.00175932 -1.84692e-16)
(-0.00123745 0.000472734 1.99299e-16)
(-0.00126464 0.000591765 -4.53593e-17)
(0.00130677 0.000543579 1.95364e-16)
(0.00137211 0.000478787 -6.15116e-17)
(-0.0013048 0.000508156 1.8547e-16)
(0.00133927 0.000580537 0)
(-0.00127553 0.000595281 0)
(-0.00131521 0.000496797 0)
(-0.00133126 0.000508216 -1.08726e-16)
(0.00127222 0.000457745 -1.93044e-16)
(0.00121438 0.000509775 3.75283e-21)
(-0.00131157 0.000510758 0)
(-0.00131624 0.000478368 9.83242e-17)
(-0.000809414 0.00160628 0)
(0.00110664 0.000670684 0)
(0.000197027 0.00194408 8.61746e-17)
(0.00123684 0.00049801 5.74628e-17)
(-0.00128357 0.000576413 0)
(-0.00127761 0.000587392 0)
(-0.00127714 0.000583327 1.88217e-16)
(-0.00128211 0.000581111 -1.86174e-16)
(-0.00133045 0.000439127 2.97769e-16)
(-0.000130072 0.000328596 5.13888e-17)
(-0.00134462 0.000517111 -5.90064e-17)
(-0.00125973 0.000583546 6.23702e-17)
(0.00128166 0.000505699 2.23735e-17)
(-0.00132031 0.000469489 -9.62585e-17)
(-0.000361151 0.0013176 -1.01156e-16)
(-0.00130538 0.000624319 1.89326e-16)
(-0.00132287 0.00047238 1.92816e-16)
(0.00152097 0.0010167 0)
(-0.000147498 0.00132604 0)
(-0.00137555 0.00056884 6.09851e-21)
(0.00124835 0.000496732 2.04396e-16)
(0.00131644 0.000541366 -1.0565e-16)
(-0.00127386 0.00058235 1.81888e-16)
(0.00114219 0.00042411 -1.31318e-16)
(0.00022629 0.000153186 1.07918e-16)
(-0.00127807 0.000583755 -3.65588e-16)
(2.21182e-05 0.0017473 0)
(-0.00150063 0.000541163 -3.66788e-17)
(-0.00128713 0.000580286 -2.11763e-16)
(-0.00128281 0.000581179 1.9002e-16)
(-0.000455352 0.000230184 2.17219e-16)
(-0.00131504 0.000481453 0)
(0.00138595 0.000298479 1.23013e-16)
(-0.00127696 0.000580048 -9.37849e-17)
(-0.0013069 0.000507477 -1.00073e-16)
(0.00131337 0.000476333 0)
(-0.001279 0.000582541 0)
(-0.000886228 0.0019391 1.37277e-16)
(-0.00135666 0.000458548 -1.83737e-16)
(0.00127548 0.000440381 0)
(0.00133171 0.000608208 2.37179e-16)
(0.00127463 0.00050788 1.23125e-17)
(-0.00026602 0.00142103 2.58442e-16)
(-0.00131614 0.000497538 0)
(0.00124033 0.00052642 1.98132e-16)
(0.0012873 0.000490319 -2.63563e-16)
(-0.00131773 0.000477291 1.94297e-16)
(0.00135839 0.000644395 0)
(0.000217054 0.000149966 -1.10465e-16)
(-0.00142201 0.00059447 -2.41611e-22)
(-0.000235103 0.00180713 9.63409e-17)
(0.00127879 0.000480058 0)
(-0.00132787 0.00044524 -2.99177e-16)
(0.00118428 0.000672608 3.93346e-16)
(0.00116296 0.000678798 -9.12442e-17)
(0.00129094 0.00050558 -1.32951e-17)
(0.00129353 0.000436298 -1.26247e-16)
(0.00129338 0.000511126 1.94438e-16)
(0.00130437 0.000480579 0)
(-0.00144408 0.000440347 1.43579e-16)
(-0.00136298 0.000444097 -1.87092e-16)
(-0.00128825 0.000571177 -7.47198e-19)
(0.00122394 0.00058779 0)
(0.0011995 0.000520603 2.14672e-16)
(0.000414442 0.000149985 2.31986e-16)
(-0.00130799 0.000487779 1.95534e-16)
(-0.0012753 0.000578812 2.07963e-16)
(-0.00130469 0.000589906 0)
(-0.000806421 0.0018927 1.96762e-16)
(-0.00132042 0.00048029 5.91238e-21)
(0.00121904 0.000453582 1.14694e-16)
(-0.00131378 0.00048398 0)
(-0.00128389 0.000579398 -1.18783e-17)
(-0.00128271 0.000583219 0)
(-0.00128189 0.000582338 -1.85912e-16)
(-0.00132093 0.000512138 0)
(-0.000176993 0.00193937 -1.19592e-16)
(0.000870301 0.000484324 -3.44559e-16)
(0.00127462 0.000643231 1.25597e-16)
(-0.00131742 0.000481229 9.79713e-17)
(0.00125857 0.000496852 0)
(0.00134518 0.000631265 -1.26566e-16)
(-0.000221961 0.00191772 -1.90454e-16)
(0.000791902 0.00026633 -2.23907e-16)
(0.00127538 0.000522628 0)
(0.00130725 0.00057466 0)
(0.00126553 0.000538274 -1.87617e-16)
(-0.00132575 0.000452359 0)
(-0.00130836 0.000499369 1.96571e-16)
(-0.000324098 0.00211073 -6.17607e-18)
(-0.00138776 0.000591499 -1.01491e-16)
(-0.00121593 0.00046753 6.10879e-17)
(0.0012519 0.000485126 3.89324e-16)
(-0.000933306 0.00287649 -1.46077e-16)
(0.00214155 0.000843294 -1.97877e-16)
(0.0012152 0.000548144 -2.12585e-16)
(-0.00129998 0.000503318 9.64308e-17)
(-0.00130082 0.000605239 -1.21774e-17)
(-0.00127244 0.000587594 -1.89495e-16)
(0.00127216 0.000485293 2.0979e-16)
(-0.0013049 0.000493593 0)
(-0.00131412 0.000485175 9.90852e-17)
(-0.0014988 0.000536857 1.50959e-16)
(-0.00131952 0.000624535 0)
(-0.00130034 0.000592822 0)
(0.00135171 0.000620147 -1.23284e-16)
(0.0012082 0.000467708 0)
(-0.00131335 0.000497129 0)
(0.00122479 0.000457794 0)
(-0.00128404 0.000582029 1.18324e-17)
(-0.00129854 0.000576061 7.54739e-19)
(0.00118955 0.000398126 0)
(0.00128762 0.000485403 1.92891e-16)
(-2.2991e-05 0.00175891 0)
(0.00127324 0.000425829 0)
(-0.00131888 0.000484025 4.9254e-17)
(-0.00132653 0.000474936 -3.01485e-16)
(0.000134381 0.00078148 0)
(-0.00130478 0.000501797 -1.93419e-16)
(-0.00135905 0.000302946 9.23823e-17)
(-0.00136294 0.000534755 -4.3016e-21)
(-0.00140439 0.00047479 -2.43397e-16)
(-0.00149952 0.00052611 1.51161e-16)
(-0.00128616 0.00060609 0)
(-0.001328 0.000459543 2.02116e-16)
(-0.00130375 0.000500899 1.00296e-16)
(0.00128236 0.000483762 0)
(-0.00129131 0.000447918 1.62546e-16)
(-0.00130897 0.000489858 -2.6874e-16)
(1.02152e-05 0.0017094 0)
(-0.00127857 0.000577119 -2.80438e-16)
(-0.00132203 0.000540579 0)
(-0.00131839 0.000490927 0)
(0.00130467 0.000481734 2.03118e-16)
(-0.00131363 0.000480717 1.01385e-16)
(0.00114289 0.000415618 2.14783e-16)
(0.00130342 0.000524369 -2.03933e-16)
(-0.000923969 0.000447051 0)
(-0.00139385 0.000468619 0)
(-0.00130547 0.00050207 0)
(0.00127828 0.000496961 -2.1271e-16)
(0.0012931 0.000551247 0)
(0.00128879 0.000491381 0)
(-0.00139926 0.000606985 -2.99364e-16)
(0.000182616 0.00173025 2.17986e-16)
(-0.00129216 0.000600397 1.9228e-16)
(0.00132588 0.000408304 -2.1559e-16)
(-1.87518e-05 0.000914231 -6.19434e-17)
(-0.00131266 0.00051188 0)
(-0.00130916 0.000555041 2.99756e-16)
(-0.00125484 0.000589897 -1.8034e-16)
(0.000128689 0.0013384 1.08287e-16)
(0.00135531 0.000281847 0)
(0.00140396 0.000368475 1.14708e-16)
(0.00123466 0.000525104 1.77802e-16)
(-0.000264727 0.000201035 2.10734e-16)
(-0.00130821 0.000486105 -9.03935e-17)
(0.00128971 0.000510002 0)
(0.000800591 0.000301 0)
(0.00110177 0.000339481 3.86491e-16)
(-0.00130701 0.000503233 0)
(0.00135632 0.000440329 -1.0723e-16)
(-0.00139726 0.000366087 1.26094e-16)
(-0.00131576 0.000501098 9.58124e-17)
(0.00124622 0.000499462 -1.95168e-16)
(-0.00147374 0.000554606 -1.35981e-16)
(-0.00122966 0.00051516 1.849e-16)
(-0.00143147 0.000658868 1.01008e-16)
(-0.000977534 0.000383906 -1.08943e-16)
(-0.00131881 0.000498001 0)
(-0.00131321 0.000499439 0)
(-8.30129e-05 0.000657876 0)
(-1.43196e-07 0.00170571 -2.50981e-16)
(-0.00140111 0.000493918 0)
(-0.00132549 0.000650622 -8.72307e-17)
(0.00127205 0.000492805 3.76165e-16)
(0.00122191 0.000518115 -1.11176e-16)
(0.00127285 0.000455516 3.7953e-16)
(0.00128896 0.000541322 -5.49156e-17)
(0.00128096 0.000486398 -5.54981e-21)
(-0.0013013 0.000524426 -4.91292e-17)
(-0.001305 0.000507596 -9.63672e-17)
(-0.000106563 0.00201653 5.97392e-18)
(-0.00130953 0.000504582 -1.95297e-16)
(-0.00130098 0.000544042 -5.15033e-17)
(0.00122214 0.000530312 0)
(-0.00131254 0.000503973 -9.75874e-17)
(-0.00139202 0.000514864 -3.58922e-16)
(-0.00127502 0.000573399 -1.39395e-17)
(-0.00131928 0.000493392 0)
(-0.00133043 0.00043249 4.83498e-17)
(-0.00131239 0.000485929 -9.87672e-17)
(0.00139254 0.000613497 -2.08724e-16)
(-0.00130254 0.000516404 -9.94721e-17)
(0.000177628 0.00194017 6.96552e-18)
(0.00124957 0.000455329 2.44312e-17)
(-3.72513e-05 0.00191593 -1.9886e-16)
(-0.00145368 0.000596068 2.82353e-16)
(-0.0012673 0.000428117 -3.98531e-16)
(0.0012795 0.000493923 1.03054e-16)
(-0.00145594 0.000596545 1.25937e-16)
(0.000193595 0.0010015 8.11333e-17)
(-0.00129865 0.000514631 1.97981e-16)
(0.00124297 0.000426883 1.76671e-16)
(-1.42471e-05 0.00188025 0)
(-3.55327e-05 0.001674 -2.83926e-16)
(-0.00130344 0.00053865 -1.57228e-16)
(0.00126106 0.000430226 -5.19586e-17)
(-1.47614e-05 0.00187529 7.90275e-19)
(0.00153302 0.000609643 9.76711e-17)
(-0.00120708 0.000482527 2.95299e-16)
(-0.00131646 0.000500132 -5.09887e-17)
(-0.00133159 0.000473587 0)
(-0.00136645 0.00050228 2.29032e-16)
(0.00126343 0.000510372 -2.02297e-16)
(-0.00130528 0.000508828 -9.68016e-17)
(0.0012623 0.00049812 0)
(-3.033e-06 0.00186494 -2.01873e-16)
(-0.00138478 0.000531971 1.2077e-16)
(0.00146821 0.00131717 -3.66328e-16)
(0.00129655 0.000493329 0)
(-8.3471e-06 0.00186525 0)
(0.00133119 0.000534125 5.95067e-21)
(5.41853e-06 0.00185991 -2.02111e-16)
(2.94372e-06 0.00186433 4.01904e-16)
(-0.00130132 0.000510627 4.98494e-17)
(-0.000116084 0.0019204 1.97708e-16)
(-4.98796e-06 0.00185845 0)
(-1.20431e-05 0.00186727 2.01156e-16)
(-0.00130263 0.000507847 0)
(0.00149833 0.000839752 0)
(6.00047e-06 0.00186239 0)
(-2.91738e-06 0.00186212 -2.01439e-16)
(-0.00129832 0.000532465 0)
(-6.60818e-06 0.00186353 4.05273e-16)
(-0.00131358 0.000497444 0)
(-2.75771e-06 0.00186329 -2.0242e-16)
(-0.00130377 0.000507848 -2.93184e-16)
(-3.31326e-06 0.00185724 0)
(-0.00129082 0.000535246 9.67029e-17)
(-0.000587314 0.00213182 -4.71368e-17)
(0.00136286 0.000607679 2.50258e-16)
(0.00138854 0.000522298 0)
(3.73306e-07 0.00186165 1.45289e-20)
(-7.28704e-06 0.00186456 -1.9939e-16)
(-0.0013239 0.000439166 -8.5175e-17)
(0.00124713 0.000558621 -2.05744e-16)
(0.00113234 0.000459105 0)
(0.00127279 0.000488281 3.10264e-16)
(-1.39623e-06 0.00186243 2.01999e-16)
(-0.00129868 0.000509908 0)
(-4.58063e-05 0.00188317 2.00564e-16)
(-1.31642e-06 0.00185823 0)
(-3.21462e-06 0.00186106 -2.0488e-16)
(-0.00130843 0.000509943 0)
(0.00128216 0.00054443 1.95267e-16)
(-0.00131278 0.000502154 2.68327e-21)
(4.86128e-07 0.00185769 2.02885e-16)
(0.00130033 0.000476391 -4.1935e-16)
(0.000192119 0.00110943 0)
(-6.7049e-06 0.00186439 0)
(0.00144312 0.000666758 1.46625e-16)
(0.00127056 0.000444321 0)
(-0.00014615 0.00199792 0)
(-0.00131123 0.00049641 -3.52291e-16)
(-5.00063e-05 0.00190759 0)
(-0.00130485 0.00050808 9.75573e-17)
(-0.00110684 0.000944972 -5.25375e-17)
(-0.00129886 0.000532861 2.01112e-16)
(4.56525e-07 0.00185885 -4.04625e-16)
(-0.00133423 0.000486561 5.41573e-17)
(-0.00128987 0.000535151 1.92964e-16)
(-2.29419e-06 0.00186023 0)
(-4.59176e-06 0.00185744 -1.98249e-16)
(0.00120752 0.000410824 0)
(5.84687e-07 0.00186146 -2.04206e-16)
(1.12668e-06 0.00185989 0)
(-8.72095e-05 0.0019341 2.01276e-16)
(5.63662e-06 0.00168123 -2.27204e-16)
(-0.00126269 0.000537315 1.17406e-16)
(-2.69736e-05 0.00188649 9.8173e-20)
(0.00092575 0.000271857 0)
(-0.00133793 0.000490209 7.99851e-17)
(-0.00126157 0.000540531 4.68854e-17)
(3.91132e-06 0.00185665 4.05015e-16)
(-7.39628e-06 0.00186355 2.01601e-16)
(-0.00133283 0.000510412 -4.65999e-16)
(1.17617e-06 0.00185954 2.02683e-16)
(0.00118096 0.000379111 6.72913e-21)
(-9.5203e-06 0.00185998 2.00602e-16)
(-0.00131698 0.000500321 0)
(-0.0012975 0.000520927 5.1218e-17)
(-1.01707e-06 0.00186055 -1.45956e-20)
(0.001265 0.00062354 2.10081e-16)
(-0.00130989 0.000510725 -1.02841e-16)
(-0.00129181 0.000532542 -8.98996e-17)
(-4.60339e-06 0.00186277 -2.01524e-16)
(0.00127257 0.000498897 3.51594e-18)
(-2.93757e-07 0.00186131 -1.45997e-20)
(-0.00132041 0.000498761 4.80864e-17)
(6.02192e-06 0.001858 0)
(-0.00131277 0.000496222 0)
(-1.08104e-05 0.00186279 -2.01466e-16)
(9.3951e-07 0.00186081 2.02265e-16)
(0.00127134 0.000528254 -2.45279e-17)
(-0.00133873 0.000458394 2.1972e-16)
(-9.79879e-06 0.00186025 1.99771e-16)
(2.32948e-06 0.00185776 0)
(-0.00130102 0.000528172 0)
(-0.00129501 0.000532751 1.53402e-16)
(-0.00133658 0.000426684 0)
(-6.81366e-05 0.00115043 -1.08309e-16)
(-3.53157e-07 0.00186114 2.0271e-16)
(-0.00129196 0.000531036 -1.45372e-16)
(-0.00130306 0.000508931 0)
(-0.00129673 0.000493727 5.30127e-17)
(-1.74551e-05 0.00186664 1.97007e-16)
(1.09038e-07 0.00185844 -1.46731e-20)
(-0.0013059 0.000499276 -5.14127e-17)
(0.000756647 9.11352e-05 -2.18993e-16)
(-1.65726e-05 0.00187072 -2.00426e-16)
(-5.31277e-06 0.00186324 2.02104e-16)
(2.64604e-06 0.0018586 2.02981e-16)
(-2.0694e-07 0.00186457 -2.00155e-16)
(0.0015524 0.000787137 -1.92047e-16)
(-1.10632e-05 0.00186028 -2.01109e-16)
(-0.0013153 0.000495872 0)
(-0.00128412 0.000472634 0)
(0.00123467 0.000475761 0)
(-2.85429e-06 0.0018583 -2.0357e-16)
(-0.00129021 0.000534653 2.48142e-16)
(0.00126174 0.000469401 -1.57151e-16)
(-0.00124822 0.000505843 2.71353e-16)
(-0.00130512 0.000507137 -1.96916e-16)
(-0.00130713 0.000505178 -1.01262e-16)
(-0.0014092 0.000663357 -1.00454e-16)
(-5.38974e-06 0.00185928 -4.05793e-16)
(5.09406e-06 0.00185841 8.46294e-20)
(-0.00131332 0.00054154 -5.80046e-17)
(-0.00130802 0.00052474 4.59958e-17)
(-0.00130759 0.00050824 -5.05267e-17)
(7.47415e-06 0.00186069 -2.02616e-16)
(1.58249e-06 0.00185839 4.10225e-16)
(-9.12141e-06 0.00186039 -2.02961e-16)
(1.59241e-06 0.00186037 -7.95367e-19)
(-0.00130416 0.00051714 4.91294e-17)
(-6.38422e-06 0.00185926 0)
(8.89792e-06 0.00185975 -2.03784e-16)
(6.06122e-06 0.00185775 2.0275e-16)
(7.67501e-06 0.00186079 3.50534e-20)
(-0.00130891 0.000492872 1.02069e-16)
(-1.04816e-05 0.00187071 0)
(-0.00130999 0.000498181 -2.00616e-16)
(-0.0013414 0.000485319 0)
(0.00128135 0.000490701 -2.22459e-16)
(-7.33279e-07 0.00185955 -1.57904e-18)
(0.0012261 0.000490926 1.97903e-16)
(1.1774e-06 0.00185964 -1.45336e-20)
(-0.000113575 0.00190849 0)
(-7.58434e-05 0.00188432 -1.99271e-16)
(-0.00130958 0.000499862 0)
(-0.00132029 0.000498133 -9.8656e-17)
(1.27368e-05 0.00185802 0)
(-0.00129931 0.000503577 -2.14073e-16)
(-0.00130605 0.000511766 -1.06354e-16)
(0.00127471 0.000507341 2.13741e-16)
(7.20624e-07 0.00185885 -2.03084e-16)
(-1.06445e-05 0.00186045 -2.0316e-16)
(-0.00131225 0.000521221 5.55536e-17)
(-2.02035e-06 0.00185984 -2.00307e-16)
(-0.00129423 0.000491619 3.11586e-16)
(-8.62914e-06 0.00185891 -2.0229e-16)
(2.65491e-06 0.00185994 -1.45603e-20)
(-0.00129859 0.000553764 -2.36559e-16)
(-1.16576e-05 0.00186008 2.00629e-16)
(0.00128374 0.000485384 0)
(-0.00130408 0.000510107 -5.02511e-17)
(-6.74181e-07 0.00185916 3.18891e-18)
(-0.00131261 0.000491105 1.00775e-16)
(-3.18676e-07 0.00185864 -1.60073e-18)
(-0.00130445 0.000500908 5.04604e-17)
(-0.00123416 0.000458537 0)
(4.9051e-06 0.00185999 -1.46325e-20)
(-0.00142295 0.000600151 3.00917e-16)
(1.12582e-06 0.00186093 2.0447e-16)
(0.00118432 0.00059839 -5.87775e-17)
(-0.00125128 0.00055587 1.95205e-16)
(-4.05641e-07 0.00185975 2.04616e-16)
(0.00095061 0.000374666 2.15026e-16)
(-2.42928e-06 0.00185981 2.03321e-16)
(1.46015e-06 0.00185983 3.1727e-18)
(0.00108954 0.00039827 2.27232e-16)
(0.00116803 0.000410647 -2.1254e-16)
(0.00132839 0.000525242 0)
(-0.00139673 0.000569856 0)
(-1.07272e-05 0.00185997 -1.59108e-18)
(0.00121061 0.000458845 2.79971e-16)
(-1.03868e-05 0.00185895 -1.57972e-18)
(-0.0013073 0.0005062 -9.82428e-17)
(0.0011896 0.000405276 0)
(9.75206e-06 0.00185918 -4.05555e-16)
(1.59703e-06 0.00185938 -4.0807e-16)
(-0.00130045 0.000524432 0)
(-0.00130877 0.000491985 0)
(1.1044e-06 0.00186082 -4.05521e-16)
(-3.7149e-05 0.00187853 0)
(-0.00129837 0.000537631 -1.9548e-16)
(-2.4971e-05 0.00187006 -4.00515e-16)
(-0.00118857 0.000430143 0)
(0.00134586 0.000427878 5.24849e-17)
(1.2544e-07 0.00185744 -1.6074e-18)
(4.24373e-06 0.00186139 2.04311e-16)
(0.0010173 0.000634057 -7.03678e-18)
(4.97074e-07 0.00185934 -2.04793e-16)
(-0.00131601 0.000484816 1.57438e-16)
(-0.00139087 0.000643058 1.38983e-16)
(-1.15319e-05 0.00185967 2.01868e-16)
(-0.00131231 0.000490641 1.45748e-16)
(-2.03315e-06 0.00186021 2.04814e-16)
(-1.07359e-05 0.00185918 -2.02606e-16)
(-1.20993e-05 0.0018594 -2.01908e-16)
(-0.00129544 0.000526909 0)
(-0.00131049 0.00049243 -4.98684e-17)
(-1.31349e-06 0.00185902 -7.98786e-19)
(1.10495e-05 0.00185977 0)
(-0.0012936 0.000525605 1.98689e-16)
(-0.00130482 0.000492493 0)
(1.68441e-06 0.00185917 -2.03402e-16)
(-9.0169e-06 0.00186536 3.16232e-18)
(0.00127254 0.000494368 -2.14736e-16)
(1.68779e-06 0.00185958 -4.10854e-16)
(-0.00140554 0.000551005 3.41577e-16)
(-6.87087e-07 0.0018595 0)
(-5.94258e-07 0.00186012 2.02761e-16)
(-3.61328e-07 0.0018597 0)
(-6.87236e-08 0.00185963 2.02821e-16)
(1.37342e-06 0.00185923 -2.02308e-16)
(0.00108752 0.000425344 1.21377e-16)
(4.96254e-07 0.00185889 2.0245e-16)
(8.59646e-07 0.00186305 -1.46576e-20)
(-1.81034e-08 0.00185947 2.04803e-16)
(-1.25528e-05 0.00185974 4.04649e-16)
(-0.00131073 0.000500923 0)
(-0.00130973 0.000504819 -5.25278e-17)
(-1.09302e-05 0.00185943 0)
(-2.49342e-07 0.00185957 0)
(-1.27142e-06 0.00185881 -2.06613e-16)
(1.10647e-05 0.00186032 2.031e-16)
(9.14879e-06 0.00186039 2.03865e-16)
(-0.00130681 0.000509055 2.57697e-16)
(9.8592e-06 0.00185948 2.03296e-16)
(-7.14351e-07 0.00186002 -2.04795e-16)
(-1.7778e-06 0.00185963 0)
(-4.90255e-07 0.00185948 -1.47064e-20)
(-0.00130973 0.000504598 1.00376e-16)
(1.09558e-05 0.0018597 0)
(1.03514e-05 0.00185909 2.03438e-16)
(-4.37984e-06 0.00186309 -2.05258e-16)
(-0.0013154 0.000490522 0)
(-1.44741e-08 0.00185952 0)
(0.00128449 0.000494329 -2.13232e-16)
(-2.23614e-07 0.00186077 1.5988e-18)
(-1.80543e-07 0.00186119 -3.98541e-19)
(-8.93747e-06 0.00185795 -7.92072e-19)
(-1.21507e-05 0.00185919 1.46019e-20)
(-9.78774e-06 0.00185845 7.92719e-19)
(-0.00130921 0.000571169 -1.24096e-16)
(-1.16973e-05 0.00185831 2.03612e-16)
(6.22393e-06 0.00185925 0)
(-1.14682e-05 0.00185856 2.02164e-16)
(-1.16205e-05 0.00185892 -2.0251e-16)
(-1.22502e-05 0.0018597 -2.0345e-16)
(-0.00157984 0.0012925 -3.08465e-16)
(-0.000301065 0.000372243 -3.84299e-16)
(1.12936e-05 0.00185993 -2.03715e-16)
(-1.11866e-06 0.00185967 -2.03073e-16)
(1.30902e-07 0.00186008 -2.03027e-16)
(1.01492e-05 0.00185906 2.03499e-16)
(-0.00131636 0.00049656 -2.02475e-16)
(-1.30157e-05 0.00185881 2.02141e-16)
(-1.09228e-06 0.00185981 -2.02692e-16)
(-8.51684e-06 0.00186336 -4.03169e-16)
(-9.68704e-07 0.00185922 -1.60331e-18)
(1.20657e-05 0.00185916 2.0273e-16)
(0.0012745 0.000488796 2.13266e-16)
(-3.96187e-06 0.00186038 -2.0273e-16)
(7.30562e-07 0.00185948 -1.45903e-20)
(0.00135804 0.000560339 -2.63007e-16)
(-3.98839e-07 0.0018594 0)
(-8.24971e-07 0.00185946 0)
(-1.29579e-05 0.00185919 -4.06256e-16)
(-0.00130976 0.000502625 1.00717e-16)
(2.42425e-07 0.00185838 -4.00495e-19)
(-1.50245e-05 0.0018598 2.1228e-19)
(0.00128207 0.000478797 1.41756e-17)
(-1.38169e-05 0.00186069 2.03077e-16)
(1.36814e-05 0.00185987 2.0305e-16)
(1.253e-05 0.00185956 -2.02902e-16)
(3.13296e-06 0.00185938 -2.03473e-16)
(-1.46889e-05 0.00185997 1.4595e-20)
(-0.00136093 0.000483345 -2.15476e-16)
(-0.00111553 0.000430214 2.6548e-16)
(-1.31325e-06 0.00185767 -1.46749e-20)
(-8.24453e-07 0.00185959 -2.02591e-16)
(-0.00129813 0.000527449 5.1124e-17)
(1.18095e-06 0.0018593 -1.47067e-20)
(-1.35476e-05 0.00185859 8.05155e-19)
(1.36029e-05 0.00185919 -4.06045e-16)
(6.20324e-06 0.00185745 2.03835e-16)
(1.15508e-05 0.00185882 -2.03833e-16)
(1.13615e-05 0.00185922 -2.03827e-16)
(1.35843e-05 0.00185944 2.03127e-16)
(1.13183e-05 0.00185893 1.9868e-19)
(1.34822e-05 0.00185949 0)
(0.00128448 0.000485685 0)
(-1.09785e-05 0.00185962 2.04489e-16)
(-8.86073e-07 0.00186156 0)
(2.45151e-06 0.00186083 2.03738e-16)
(1.35115e-05 0.00185943 0)
(1.34536e-05 0.00185959 2.03195e-16)
(1.36318e-05 0.00185929 -9.91919e-20)
(1.44062e-06 0.0018609 1.99365e-16)
(1.22438e-05 0.00186023 0)
(-3.4883e-06 0.00186133 0)
(-1.13982e-05 0.00186103 -2.0471e-16)
(-0.00130685 0.000505052 -2.47318e-21)
(1.20123e-05 0.00185938 0)
(-2.74774e-05 0.0018912 0)
(1.18068e-05 0.00185941 0)
(-0.00127757 0.000487314 1.57171e-16)
(9.36019e-07 0.00185977 -2.02843e-16)
(-8.47974e-06 0.00186341 2.04682e-16)
(1.23456e-05 0.00186049 -9.94055e-20)
(-0.00128064 0.000535722 5.56769e-17)
(-0.00129964 0.000528381 -5.08323e-17)
(1.08057e-05 0.00186015 -2.03821e-16)
(-3.22639e-06 0.00185656 0)
(-4.55524e-07 0.0018627 -2.03902e-16)
(1.09478e-05 0.00186028 1.46473e-20)
(1.35831e-05 0.0018592 -2.03661e-16)
(-1.34566e-06 0.00185523 4.05044e-16)
(0.00123891 0.000421575 -3.65597e-16)
(0.00128129 0.000496179 -4.30922e-16)
(-1.87692e-06 0.00186009 4.07253e-16)
(0.00126481 0.00049856 0)
(1.06907e-05 0.00186028 0)
(1.37978e-05 0.00185892 -3.97e-19)
(-0.00133299 0.000527664 -1.84023e-16)
(-0.00130459 0.000533798 1.05906e-16)
(8.52516e-07 0.00185875 -1.00205e-19)
(1.07949e-05 0.00186044 2.03873e-16)
(1.14957e-06 0.00185949 -2.03131e-16)
(-0.0011927 0.00114017 1.02777e-16)
(1.02197e-05 0.00186023 7.96853e-19)
(-1.32375e-05 0.00186053 2.03303e-16)
(-1.08556e-06 0.00186202 2.04073e-16)
(-0.00148975 0.000762571 -2.01501e-16)
(1.0559e-05 0.00186082 0)
(-7.61151e-07 0.00185969 4.01577e-19)
(-2.84337e-06 0.00186144 -2.03107e-16)
(-0.00131065 0.000496939 0)
(0.00132235 0.000364041 3.85788e-16)
(-0.00129055 0.000536868 5.36683e-17)
(1.00992e-05 0.00186041 -7.96984e-19)
(1.41644e-06 0.0018601 -2.03831e-16)
(-1.17819e-05 0.0018584 -2.03658e-16)
(-0.00130448 0.000523964 3.04098e-16)
(1.01395e-05 0.00186104 -2.04091e-16)
(-1.5483e-05 0.00185909 7.93027e-19)
(8.12829e-07 0.00185871 2.00593e-19)
(1.25769e-05 0.00185912 0)
(-4.14146e-07 0.00186237 0)
(1.27433e-05 0.00185898 0)
(1.328e-06 0.00186011 0)
(-0.0013066 0.000496738 -5.0581e-17)
(-1.38853e-05 0.00185842 0)
(-9.12503e-07 0.00185959 0)
(0.001381 0.000645567 1.57511e-16)
(8.83744e-07 0.00186014 0)
(-7.52203e-05 0.00193597 0)
(-3.70422e-07 0.00186232 4.08013e-16)
(6.83282e-07 0.00185872 0)
(0.00127238 0.000467714 -4.81149e-17)
(0.00128041 0.000497218 0)
(0.0011472 0.000569289 1.05925e-16)
(0.00125535 0.000452933 -2.062e-16)
(1.45569e-06 0.0018603 -4.07227e-16)
(-0.00118082 0.000512554 0)
(5.75886e-07 0.00186018 -1.99183e-19)
(-0.00129774 0.000525037 -9.91589e-17)
(1.41618e-05 0.00185924 0)
(0.000634328 0.000725691 0)
(2.27468e-07 0.00185965 -4.02035e-19)
(1.06392e-06 0.00186439 -1.26936e-17)
(0.000479248 0.00114231 -7.05271e-18)
(1.25693e-05 0.00185812 0)
(1.50416e-06 0.00185958 0)
(-0.00130374 0.000513353 0)
(-5.95567e-07 0.00185955 4.06414e-16)
(-5.28679e-07 0.00186001 0)
(0.00127745 0.000490181 3.89441e-21)
(0.000361209 0.00107269 0)
(-6.47089e-08 0.00185979 4.14449e-19)
(-1.56038e-07 0.00186073 -2.04148e-16)
(9.54301e-07 0.00185936 -2.03128e-16)
(8.08798e-07 0.00185882 -4.02709e-19)
(3.45033e-07 0.00185906 0)
(7.23709e-07 0.00186076 1.47228e-20)