/*--------------------------------*- C++ -*----------------------------------*\
  =========                 |
  \\      /  F ield         | OpenFOAM: The Open Source CFD Toolbox
   \\    /   O peration     | Website:  https://openfoam.org
    \\  /    A nd           | Version:  12
     \\/     M anipulation  |
\*---------------------------------------------------------------------------*/
FoamFile
{
    format      ascii;
    class       volVectorField;
    location    "0.16";
    object      U;
}
// * * * * * * * * * * * * * * * * * * * * * * * * * * * * * * * * * * * * * //

dimensions      [0 1 -1 0 0 0 0];

internalField   nonuniform List<vector> 
4428
(
(0.00121728 0.00046224 1.01428e-16)
(-0.00123238 0.000509211 -9.03824e-17)
(-0.00111492 0.000510344 0)
(-0.0011597 0.00049019 0)
(0.00111462 0.000926246 8.16389e-17)
(0.00116002 0.000952618 3.23374e-21)
(-0.00110892 0.000640041 0)
(-0.00124367 0.000443031 1.4641e-16)
(0.00119803 0.000491563 -2.49064e-16)
(0.00123684 0.000357563 9.95372e-17)
(-0.00113351 0.000393896 -1.73329e-16)
(0.00113985 0.000484887 -1.76862e-16)
(-0.00128012 0.000268433 -2.03658e-16)
(-0.000396299 0.00142931 -9.58151e-17)
(0.00119879 0.000465569 0)
(0.00109562 0.000401597 0)
(0.00124086 0.000446825 0)
(-0.00113406 0.000392971 0)
(-0.00128734 0.000267018 0)
(0.0012121 0.000465555 0)
(0.000430261 0.000353615 -4.48034e-16)
(-0.0012274 0.000470312 -1.77701e-16)
(-0.00115765 0.000493954 0)
(-0.00126434 0.000429684 0)
(-0.00122167 0.000466486 2.26616e-17)
(-0.00115785 0.000427365 0)
(-0.00117185 0.000623701 1.03356e-16)
(0.00117943 0.00037864 2.07802e-16)
(0.0011023 0.000543804 0)
(-0.00129689 0.000294465 0)
(0.0012018 0.000289655 0)
(-0.0012413 0.000467833 -1.84203e-16)
(0.00122039 0.000388221 -9.00189e-17)
(-0.00126339 0.00061518 -2.77421e-16)
(-1.34938e-05 0.00165859 4.69769e-17)
(-0.00123742 0.000483468 1.99861e-16)
(-0.00121516 0.000614233 -4.42326e-21)
(0.00112688 0.00151872 1.27042e-17)
(-0.000176548 0.00143824 -2.62232e-17)
(-0.00116196 0.00051074 0)
(0.0012249 0.000440971 0)
(0.00110689 0.000353231 0)
(0.00116285 0.000395477 9.24313e-17)
(-0.00126687 0.000404677 1.66057e-16)
(0.00121406 0.000381022 0)
(0.000991056 0.00037213 0)
(0.00116096 0.00111436 -9.9783e-17)
(-0.00115725 0.000564352 2.03142e-16)
(-0.0011771 0.000497835 2.24458e-16)
(-0.00121267 0.000535146 0)
(0.00121584 0.000511348 0)
(0.00108451 0.000524902 1.88122e-16)
(0.00124316 0.000356714 -9.13179e-17)
(0.00109988 0.00054036 0)
(0.00112606 0.00047928 -1.39783e-17)
(0.000734691 0.000348107 0)
(0.00108521 0.000518458 -9.29922e-17)
(-0.00118393 0.000384405 0)
(0.00101375 0.00108795 1.82959e-16)
(0.00119073 0.000406274 -1.8201e-16)
(0.00124554 0.000478836 1.67096e-16)
(-0.00124567 0.00039547 0)
(0.00108338 0.000430042 2.7995e-16)
(-0.00123864 0.000465779 9.26976e-17)
(-0.00123467 0.000484439 0)
(0.00113792 0.000499899 0)
(-0.0012634 0.000411359 1.73156e-16)
(-0.00116897 0.000499476 -1.85819e-16)
(0.00117678 0.00041843 -1.82184e-16)
(-0.00120077 0.000522612 -3.61906e-16)
(-0.00126838 0.000393923 -9.16126e-17)
(0.00119164 0.000543586 2.12652e-16)
(0.00129442 0.000568603 5.80501e-17)
(-0.00114805 0.000479002 4.46951e-17)
(0.00121162 0.000424819 1.96648e-16)
(-2.1503e-05 0.0016379 -1.83294e-16)
(0.00124302 0.000570566 0)
(0.00127922 0.000502311 0)
(-0.00112128 0.000645479 -1.18143e-16)
(0.000869039 0.000409569 -4.33662e-21)
(0.00109087 0.000560746 -1.97537e-16)
(-0.00125762 0.000396693 0)
(0.00116472 0.000559077 -1.81062e-16)
(0.00117722 0.000491254 -1.72065e-16)
(0.00124099 0.000444509 3.18303e-16)
(-0.00134875 0.000423209 -2.54687e-16)
(-0.000158957 0.00184724 1.15142e-16)
(-0.00125656 0.000460101 0)
(-0.00123539 0.000471217 -9.60335e-17)
(0.00112945 0.000495759 2.0474e-17)
(0.00121328 0.000363056 8.36645e-17)
(0.00124381 0.000445222 -1.59367e-16)
(-0.00125125 0.000497575 0)
(-0.00124066 0.00046216 0)
(-0.00123505 0.000485179 9.81688e-17)
(-0.00119884 0.000503234 1.67119e-16)
(0.0012263 0.000486317 1.1353e-16)
(-0.00125779 0.000477654 -1.19902e-16)
(-0.00126995 0.000390303 9.28701e-17)
(0.001146 0.000620392 0)
(0.00114924 0.000524388 -2.2514e-17)
(0.00118734 0.000466132 0)
(0.00121757 0.000428613 0)
(0.00109995 0.000413067 -1.87985e-16)
(0.00107486 0.000505828 -1.03701e-16)
(0.00111925 0.000541131 2.49574e-21)
(0.00118881 0.000489408 1.90325e-16)
(-0.00121803 0.00058487 -1.22455e-16)
(0.00122942 0.000484732 -1.20822e-16)
(0.00115995 0.000574807 0)
(0.00118754 0.000393276 1.64695e-16)
(0.00119373 0.000458268 -1.94803e-16)
(-0.00114821 0.000472551 2.63846e-21)
(0.00113346 0.000430734 1.65964e-16)
(-0.000688986 0.000433241 1.15542e-16)
(-0.00126657 0.000383768 1.80232e-16)
(-0.000274375 0.00159522 0)
(0.000493076 0.000384834 5.24745e-17)
(-0.00128076 0.000422545 8.87647e-17)
(0.00127792 0.000497757 -1.12859e-16)
(0.00127115 0.000494792 2.1153e-16)
(-0.00112243 0.000650385 2.41276e-16)
(0.000825653 0.0013511 -1.96895e-16)
(0.00121054 0.000392515 -3.03618e-16)
(1.46375e-06 0.00165902 1.78758e-16)
(-0.00123976 0.000465965 0)
(-0.00125805 0.000420686 -2.72256e-16)
(0.00114387 0.000479975 9.95085e-17)
(-0.00123535 0.00050412 -3.04099e-16)
(-0.0012377 0.000482324 9.66763e-17)
(-0.00126755 0.00039748 -1.87132e-16)
(-0.00121325 0.000500649 0)
(0.00122504 0.000489955 2.24125e-16)
(0.00117184 0.000440558 0)
(0.00118893 0.000463415 0)
(0.00127073 0.000548702 6.53946e-21)
(0.0012554 0.000524906 -2.43669e-16)
(-0.00126393 0.000388785 -1.82387e-16)
(-0.00124055 0.000477965 -1.8355e-16)
(-0.00122822 0.000497852 1.43948e-16)
(-0.00122329 0.000591751 -1.23706e-16)
(-0.00124117 0.000448498 -9.6748e-17)
(0.00117039 0.000469835 0)
(0.00117775 0.000478063 -1.99428e-16)
(0.00123269 0.000461676 0)
(0.00116304 0.00044789 9.67643e-17)
(0.00125173 0.000566197 1.28474e-16)
(-3.07825e-05 0.00117804 -9.13944e-17)
(0.0013039 0.000354815 2.88887e-16)
(-6.90622e-06 0.00165456 4.54406e-17)
(-0.00123893 0.000466088 -1.99512e-16)
(-0.000805451 0.000360136 1.00283e-16)
(0.00116581 0.000376461 -9.61997e-21)
(0.00129904 0.000446894 -2.48623e-16)
(-0.00123685 0.000482 2.91594e-16)
(0.00125617 0.000468429 0)
(0.00113968 0.000767003 -1.77127e-16)
(0.0012228 0.000363043 -9.4848e-17)
(0.00120375 0.000437299 -1.78767e-16)
(-0.00125 0.000405644 -9.12341e-17)
(-0.00123157 0.000512155 1.95447e-16)
(0.00120033 0.000474655 0)
(0.00129282 0.000401457 0)
(-0.000434184 0.000194485 -2.17177e-16)
(-0.00130864 0.000548441 1.19564e-16)
(-0.00126507 0.000392802 0)
(-0.00123475 0.000452345 0)
(0.00129073 0.000421815 0)
(-0.00123428 0.000476355 1.9171e-21)
(-0.00124357 0.0005347 9.36784e-17)
(-0.00126561 0.000413823 -9.37995e-17)
(0.0012398 0.000492159 3.98038e-21)
(-0.00124449 0.000468393 0)
(0.00111865 0.000471734 0)
(0.00114118 0.00148103 -1.16374e-17)
(-0.00132233 0.000555814 2.29077e-16)
(0.00124829 0.000450247 0)
(0.00108939 0.000551298 2.14589e-16)
(0.00116919 0.000495753 2.1794e-16)
(-0.00132128 0.000542807 1.14319e-16)
(-0.000154243 0.00166656 -7.05425e-21)
(-0.00119569 0.000493521 1.75078e-16)
(-0.00124784 0.00043718 1.91951e-16)
(0.00114273 0.00043849 0)
(-0.00123822 0.000466535 3.00572e-16)
(-0.00123042 0.000572903 -9.5217e-17)
(0.00122684 0.0004755 0)
(-0.0012351 0.000481038 0)
(0.00105063 0.000451978 3.43571e-16)
(0.00121033 0.000537618 0)
(0.00119821 0.000436997 0)
(0.00125119 0.000601997 2.5847e-17)
(0.00121688 0.000431729 0)
(0.0012316 0.000519655 -3.67872e-16)
(-0.00119979 0.000569111 0)
(-0.00119525 0.000562727 -1.80867e-16)
(-0.00119466 0.000561208 2.70924e-16)
(-0.00117935 0.00055095 8.88776e-17)
(0.00168323 0.000975218 1.48758e-16)
(-0.000380057 0.00176454 0)
(0.0012211 0.000555406 2.13764e-16)
(-0.00124692 0.000451292 -1.94081e-16)
(0.000965807 0.000516645 -1.90308e-16)
(-0.00125472 0.000405737 0)
(0.00111123 0.000430678 -1.76631e-16)
(0.00120751 0.000424292 -2.98059e-18)
(-0.00123173 0.000477829 9.32582e-17)
(-0.000273902 0.00191324 -1.77908e-16)
(-0.000604475 0.00165745 1.11841e-17)
(0.000819004 0.000429628 0)
(0.00123564 0.00053154 0)
(0.00133593 0.000473427 0)
(0.00123028 0.000516919 5.94289e-21)
(-0.00124482 0.000438042 0)
(0.00120314 0.000454273 0)
(-0.0012091 0.000556954 -1.40089e-16)
(-0.00119667 0.000549351 1.83784e-16)
(2.99946e-05 0.00165641 -1.84693e-16)
(-0.00116481 0.000445962 1.99299e-16)
(-0.00118987 0.000558128 -4.53593e-17)
(0.00122967 0.000511705 1.95365e-16)
(0.00129317 0.000450796 -6.15117e-17)
(-0.00122802 0.000478346 1.8547e-16)
(0.00126175 0.000547716 0)
(-0.00119997 0.000561339 0)
(-0.00123789 0.000467398 0)
(-0.0012523 0.000478371 -1.08726e-16)
(0.00119755 0.000430722 -1.93044e-16)
(0.00114291 0.000480157 3.75584e-21)
(-0.00123443 0.000480767 0)
(-0.00123881 0.000450225 9.83243e-17)
(-0.000762032 0.0015123 0)
(0.0010418 0.000633726 0)
(0.000186271 0.00183109 8.61748e-17)
(0.00116401 0.000469298 5.74628e-17)
(-0.00120767 0.000543411 0)
(-0.00120214 0.000553832 0)
(-0.00120176 0.000549942 1.88218e-16)
(-0.00120639 0.000547793 -1.86174e-16)
(-0.00125233 0.000412921 2.9777e-16)
(-0.000122483 0.000310487 5.13888e-17)
(-0.00126752 0.000488092 -5.90065e-17)
(-0.00118475 0.000550377 6.23703e-17)
(0.00120578 0.000476226 2.23736e-17)
(-0.00124269 0.000441819 -9.62586e-17)
(-0.00033978 0.00124109 -1.01156e-16)
(-0.00122857 0.000587811 1.89327e-16)
(-0.00124528 0.000444681 1.92816e-16)
(0.00143143 0.000956753 0)
(-0.000138797 0.00124808 0)
(-0.00129477 0.000535132 6.0958e-21)
(0.00117499 0.000467518 2.04396e-16)
(0.00123811 0.000510168 -1.0565e-16)
(-0.00119856 0.000549051 1.81888e-16)
(0.00107387 0.00039853 -1.31318e-16)
(0.000213279 0.000144172 1.07918e-16)
(-0.00120251 0.000550351 -3.65588e-16)
(1.98446e-05 0.00164505 0)
(-0.00141304 0.000508567 -3.66789e-17)
(-0.00121117 0.000546895 -2.11763e-16)
(-0.00120714 0.0005478 1.9002e-16)
(-0.000428713 0.000216565 2.17219e-16)
(-0.00123769 0.000453127 0)
(0.00130598 0.000279784 1.23013e-16)
(-0.00120156 0.000546795 -9.3785e-17)
(-0.00123003 0.000477564 -1.00073e-16)
(0.00123783 0.000448918 0)
(-0.00120342 0.000549131 0)
(-0.000834257 0.00182495 1.37277e-16)
(-0.00127683 0.000431634 -1.83738e-16)
(0.00120075 0.00041448 0)
(0.00125335 0.000573907 2.3718e-16)
(0.00119962 0.000478006 1.23125e-17)
(-0.000249737 0.00133807 2.58442e-16)
(-0.00123875 0.000468279 0)
(0.00116774 0.00049598 1.98132e-16)
(0.0012118 0.000461071 -2.63563e-16)
(-0.00124024 0.00044916 1.94298e-16)
(0.00127971 0.000608047 0)
(0.000204541 0.000140968 -1.10465e-16)
(-0.00134007 0.000560109 -2.42786e-22)
(-0.000220309 0.00170037 9.6341e-17)
(0.00120343 0.000452254 0)
(-0.00124988 0.000418741 -2.99177e-16)
(0.0011149 0.000633013 3.93347e-16)
(0.00109462 0.000638245 -9.12443e-17)
(0.0012149 0.000475906 -1.32951e-17)
(0.00121764 0.000410931 -1.26248e-16)
(0.00121761 0.000481291 1.94438e-16)
(0.0012272 0.000452357 0)
(-0.00135918 0.000413605 1.43579e-16)
(-0.00128289 0.000418099 -1.87092e-16)
(-0.00121232 0.000538134 -7.47199e-19)
(0.00115172 0.000554003 0)
(0.00112891 0.000490968 2.14672e-16)
(0.000390284 0.000140575 2.31986e-16)
(-0.00123105 0.000459039 1.95535e-16)
(-0.00119993 0.000545615 2.07964e-16)
(-0.00122776 0.000555795 0)
(-0.00075868 0.00178119 1.96763e-16)
(-0.00124285 0.000451979 5.91149e-21)
(0.00114761 0.000427702 1.14695e-16)
(-0.00123651 0.00045549 0)
(-0.00120812 0.000546069 -1.18783e-17)
(-0.00120694 0.000549659 0)
(-0.00120613 0.000548911 -1.85912e-16)
(-0.00124273 0.000482225 0)
(-0.000167378 0.00182664 -1.19592e-16)
(0.000817838 0.000456 -3.44559e-16)
(0.00119875 0.000606644 1.25597e-16)
(-0.00123991 0.000452885 9.79714e-17)
(0.00118454 0.000467716 0)
(0.00126603 0.000595289 -1.26567e-16)
(-0.000208808 0.00180486 -1.90455e-16)
(0.000745055 0.000250563 -2.23907e-16)
(0.00120035 0.000491939 0)
(0.0012297 0.000541249 0)
(0.00119121 0.000506666 -1.87617e-16)
(-0.00124784 0.000425497 0)
(-0.00123138 0.000470001 1.96571e-16)
(-0.000305219 0.00198666 -6.17608e-18)
(-0.00130615 0.000557978 -1.01491e-16)
(-0.00114402 0.000439863 6.1088e-17)
(0.0011784 0.000456677 3.89325e-16)
(-0.0008783 0.00270649 -1.46078e-16)
(0.00201571 0.00079384 -1.97877e-16)
(0.00114375 0.000517336 -2.12586e-16)
(-0.00122342 0.00047394 9.64309e-17)
(-0.00122434 0.000570055 -1.21774e-17)
(-0.00119732 0.000553837 -1.89495e-16)
(0.00119725 0.000456756 2.0979e-16)
(-0.00122849 0.000464035 0)
(-0.00123681 0.000456612 9.90853e-17)
(-0.00141136 0.000504499 1.50959e-16)
(-0.00124175 0.000588242 0)
(-0.00122365 0.00055853 0)
(0.00127117 0.000584452 -1.23284e-16)
(0.00113701 0.00043972 0)
(-0.00123633 0.000467603 0)
(0.00115295 0.000431501 0)
(-0.00120811 0.000548412 1.18324e-17)
(-0.00122187 0.000542635 7.5474e-19)
(0.00111959 0.000373605 0)
(0.00121167 0.000456054 1.92891e-16)
(-2.05809e-05 0.00165612 0)
(0.0011995 0.00040015 0)
(-0.00124138 0.00045564 4.9254e-17)
(-0.00124847 0.00044682 -3.01485e-16)
(0.000125999 0.00073514 0)
(-0.00122796 0.000472441 -1.93419e-16)
(-0.00128057 0.000285109 9.23824e-17)
(-0.00128527 0.000503559 -4.3091e-21)
(-0.00132131 0.000446214 -2.43398e-16)
(-0.00141208 0.000494349 1.51162e-16)
(-0.0012103 0.000571057 0)
(-0.00124989 0.000432361 2.02116e-16)
(-0.00122705 0.00047143 1.00296e-16)
(0.00120695 0.0004554 0)
(-0.0012153 0.000421044 1.62546e-16)
(-0.00123209 0.000460763 -2.68741e-16)
(8.06957e-06 0.00160906 0)
(-0.00120289 0.000543792 -2.80438e-16)
(-0.00124339 0.000509536 0)
(-0.00124084 0.000461992 0)
(0.00122778 0.000452861 2.03119e-16)
(-0.00123641 0.000452458 1.01385e-16)
(0.00107589 0.000390735 2.14783e-16)
(0.00122617 0.000493597 -2.03933e-16)
(-0.000869397 0.000420979 0)
(-0.00131176 0.000440884 0)
(-0.00122864 0.000472672 0)
(0.00120297 0.000467773 -2.1271e-16)
(0.00121828 0.000520455 0)
(0.00121326 0.000462194 0)
(-0.00131692 0.000571243 -2.99365e-16)
(0.000173962 0.0016277 2.17986e-16)
(-0.00121586 0.000565538 1.9228e-16)
(0.00124949 0.000384496 -2.1559e-16)
(-1.84183e-05 0.000860477 -6.19435e-17)
(-0.00123543 0.000481762 0)
(-0.00123196 0.00052264 2.99757e-16)
(-0.00118073 0.000555766 -1.8034e-16)
(0.000122332 0.00126 1.08287e-16)
(0.00127715 0.000264041 0)
(0.00132217 0.000345879 1.14708e-16)
(0.00116192 0.000494307 1.77802e-16)
(-0.000248798 0.000188885 2.10734e-16)
(-0.00123143 0.000457259 -9.03936e-17)
(0.00121376 0.000480105 0)
(0.000753473 0.000283426 0)
(0.0010378 0.00031922 3.86492e-16)
(-0.0012301 0.000473733 0)
(0.00127653 0.000413329 -1.0723e-16)
(-0.00131586 0.000344071 1.26094e-16)
(-0.00123844 0.000471682 9.58125e-17)
(0.00117294 0.000470006 -1.95168e-16)
(-0.00138899 0.000522453 -1.35981e-16)
(-0.00115896 0.000485923 1.849e-16)
(-0.00134725 0.000620112 1.01008e-16)
(-0.0009201 0.000361724 -1.08943e-16)
(-0.00124122 0.000468694 0)
(-0.001236 0.000470055 0)
(-7.92268e-05 0.000619244 0)
(1.31054e-06 0.00160555 -2.50982e-16)
(-0.00131804 0.000463956 0)
(-0.0012472 0.000612653 -8.72308e-17)
(0.00119745 0.000463249 3.76165e-16)
(0.00115004 0.000487716 -1.11176e-16)
(0.00119822 0.000428191 3.79531e-16)
(0.00121327 0.000508961 -5.49157e-17)
(0.00120562 0.000457752 -5.54987e-21)
(-0.00122473 0.000493641 -4.91292e-17)
(-0.00122818 0.000477958 -9.63673e-17)
(-0.000100343 0.00189788 5.97393e-18)
(-0.00123246 0.000474977 -1.95297e-16)
(-0.0012244 0.000512107 -5.15034e-17)
(0.0011499 0.000499067 0)
(-0.00123539 0.000474414 -9.75875e-17)
(-0.00131177 0.000485771 -3.58923e-16)
(-0.00120078 0.000539982 -1.39395e-17)
(-0.00124165 0.000464306 0)
(-0.00125222 0.000406592 4.83499e-17)
(-0.0012352 0.000457339 -9.87673e-17)
(0.00131038 0.000577301 -2.08724e-16)
(-0.00122589 0.00048609 -9.94722e-17)
(0.000168041 0.00182748 6.96554e-18)
(0.00117593 0.000428284 2.44313e-17)
(-3.50554e-05 0.00180323 -1.98861e-16)
(-0.00136805 0.000562394 2.82353e-16)
(-0.00119266 0.000402883 -3.98531e-16)
(0.00120413 0.000464821 1.03054e-16)
(-0.0013701 0.000562855 1.25937e-16)
(0.000181823 0.000942071 8.11334e-17)
(-0.00122229 0.000484382 1.97981e-16)
(0.00116992 0.000401449 1.76671e-16)
(-1.34137e-05 0.00176963 0)
(-3.32109e-05 0.00157343 -2.83927e-16)
(-0.00122675 0.000507022 -1.57229e-16)
(0.00118708 0.000404934 -5.19587e-17)
(-1.38959e-05 0.00176496 7.90276e-19)
(0.00144294 0.000573887 9.76712e-17)
(-0.00113583 0.000454263 2.95299e-16)
(-0.00123904 0.000470725 -5.09887e-17)
(-0.00125342 0.000445187 0)
(-0.00128558 0.000471937 2.29032e-16)
(0.00118911 0.000480412 -2.02297e-16)
(-0.00122846 0.000479087 -9.68017e-17)
(0.00118756 0.00046904 0)
(-2.85142e-06 0.00175525 -2.01873e-16)
(-0.0013053 0.000500981 1.2077e-16)
(0.00138192 0.00123958 -3.66328e-16)
(0.00122028 0.000464379 0)
(-7.85451e-06 0.00175553 0)
(0.00125283 0.000502633 5.94986e-21)
(5.11424e-06 0.00175049 -2.02111e-16)
(2.77162e-06 0.00175472 4.01905e-16)
(-0.00122474 0.000480617 4.98494e-17)
(-0.000109293 0.00180752 1.97708e-16)
(-4.69276e-06 0.00174912 0)
(-1.1331e-05 0.00175742 2.01157e-16)
(-0.00122595 0.000477965 0)
(0.00141078 0.000789509 0)
(5.66164e-06 0.00175283 0)
(-2.74431e-06 0.00175258 -2.0144e-16)
(-0.00122198 0.000501259 0)
(-6.22599e-06 0.00175389 4.05274e-16)
(-0.00123636 0.00046824 0)
(-2.5937e-06 0.00175369 -2.0242e-16)
(-0.00122706 0.000477996 -2.93184e-16)
(-3.11627e-06 0.00174798 0)
(-0.00121488 0.000503822 9.6703e-17)
(-0.000553013 0.0020062 -4.71368e-17)
(0.00128332 0.000573188 2.50258e-16)
(0.00130879 0.000492162 0)
(3.51435e-07 0.00175219 1.45291e-20)
(-6.86163e-06 0.00175489 -1.9939e-16)
(-0.00124639 0.00041272 -8.51751e-17)
(0.00117364 0.000525877 -2.05744e-16)
(0.00106401 0.000431606 0)
(0.00119784 0.000459689 3.10264e-16)
(-1.31205e-06 0.00175287 2.02e-16)
(-0.00122239 0.000479879 0)
(-4.31174e-05 0.00177238 2.00564e-16)
(-1.24245e-06 0.0017489 0)
(-3.02296e-06 0.00175158 -2.04881e-16)
(-0.00123144 0.000479936 0)
(0.00120664 0.000513672 1.95267e-16)
(-0.00123554 0.000472616 2.68323e-21)
(4.54511e-07 0.0017484 2.02885e-16)
(0.00122373 0.000448399 -4.19351e-16)
(0.000181437 0.00104287 0)
(-6.31444e-06 0.00175473 0)
(0.00135823 0.000627571 1.46625e-16)
(0.00119678 0.00041821 0)
(-0.000137495 0.00188046 0)
(-0.00123421 0.000467223 -3.52291e-16)
(-4.70715e-05 0.00179539 0)
(-0.00122807 0.00047835 9.75574e-17)
(-0.00104167 0.000889415 -5.25376e-17)
(-0.00122243 0.000501629 2.01113e-16)
(4.29707e-07 0.00174955 -4.04626e-16)
(-0.00125558 0.000458427 5.41574e-17)
(-0.00121403 0.000503759 1.92964e-16)
(-2.15878e-06 0.0017508 0)
(-4.31653e-06 0.00174817 -1.98249e-16)
(0.00113568 0.00038583 0)
(5.51768e-07 0.00175196 -2.04207e-16)
(1.06828e-06 0.00175043 0)
(-8.21014e-05 0.00182029 2.01276e-16)
(4.71842e-06 0.00158038 -2.27205e-16)
(-0.0011904 0.000507729 1.17406e-16)
(-2.53812e-05 0.00177551 9.81732e-20)
(0.00087133 0.000255823 0)
(-0.00126018 0.000461511 7.99852e-17)
(-0.00118859 0.000508899 4.68855e-17)
(3.68848e-06 0.00174742 4.05015e-16)
(-6.96135e-06 0.00175393 2.01602e-16)
(-0.00125427 0.000480882 -4.66e-16)
(1.1071e-06 0.00175019 2.02683e-16)
(0.00111054 0.000355577 6.72182e-21)
(-8.97034e-06 0.00175057 2.00602e-16)
(-0.00123959 0.000470932 0)
(-0.00122112 0.000490338 5.12181e-17)
(-9.54072e-07 0.0017511 -1.45958e-20)
(0.00119069 0.000588223 2.10082e-16)
(-0.0012328 0.000480767 -1.02841e-16)
(-0.00121583 0.000501346 -8.98997e-17)
(-4.3346e-06 0.00175317 -2.01525e-16)
(0.00119766 0.000469585 3.51595e-18)
(-2.68318e-07 0.00175181 -1.45999e-20)
(-0.00124294 0.00046945 4.80865e-17)
(5.66593e-06 0.0017487 0)
(-0.00123559 0.00046701 0)
(-1.01794e-05 0.0017532 -2.01466e-16)
(8.84632e-07 0.00175139 2.02266e-16)
(0.00119621 0.000497254 -2.45279e-17)
(-0.00125986 0.000431667 2.1972e-16)
(-9.23548e-06 0.00175083 1.99772e-16)
(2.19076e-06 0.00174846 0)
(-0.00122449 0.000497176 0)
(-0.00121887 0.00050145 1.53402e-16)
(-0.00125815 0.000401287 0)
(-6.43417e-05 0.00108229 -1.08309e-16)
(-3.31652e-07 0.00175166 2.0271e-16)
(-0.001216 0.000499855 -1.45372e-16)
(-0.00122632 0.000479377 0)
(-0.00122046 0.000464643 5.30127e-17)
(-1.64185e-05 0.00175683 1.97007e-16)
(1.007e-07 0.00174911 -1.46732e-20)
(-0.00122911 0.000469892 -5.14127e-17)
(0.000712176 8.57802e-05 -2.18993e-16)
(-1.56002e-05 0.00176068 -2.00426e-16)
(-5.01015e-06 0.00175363 2.02104e-16)
(2.48463e-06 0.00174927 2.02982e-16)
(-2.02079e-07 0.00175491 -2.00156e-16)
(0.00146105 0.000740999 -1.92048e-16)
(-1.04292e-05 0.00175085 -2.01109e-16)
(-0.001238 0.00046685 0)
(-0.00120989 0.000446695 0)
(0.00116338 0.000449142 0)
(-2.68837e-06 0.00174897 -2.0357e-16)
(-0.00121434 0.000503251 2.48142e-16)
(0.00118789 0.000441763 -1.57151e-16)
(-0.00117443 0.000476059 2.71353e-16)
(-0.0012283 0.000477415 -1.96916e-16)
(-0.0012302 0.000475475 -1.01263e-16)
(-0.00132634 0.000624335 -1.00454e-16)
(-5.09571e-06 0.00174986 -4.05793e-16)
(4.79559e-06 0.00174909 8.46293e-20)
(-0.00123531 0.000509863 -5.80047e-17)
(-0.00123104 0.000493767 4.59959e-17)
(-0.00123065 0.000478286 -5.05267e-17)
(7.04032e-06 0.00175123 -2.02617e-16)
(1.48465e-06 0.00174906 4.10226e-16)
(-8.59494e-06 0.00175095 -2.02961e-16)
(1.49679e-06 0.00175093 -7.95368e-19)
(-0.00122748 0.000486633 4.91295e-17)
(-6.02156e-06 0.00174987 0)
(8.38069e-06 0.00175035 -2.03784e-16)
(5.69999e-06 0.00174847 2.0275e-16)
(7.22981e-06 0.00175132 3.50533e-20)
(-0.00123179 0.000464202 1.02069e-16)
(-9.86091e-06 0.00176066 0)
(-0.00123294 0.000468881 -2.00616e-16)
(-0.00126356 0.000456946 0)
(0.00120598 0.000461785 -2.22459e-16)
(-6.95572e-07 0.00175015 -1.57905e-18)
(0.00115323 0.000462331 1.97903e-16)
(1.10949e-06 0.0017502 -1.45338e-20)
(-0.000106799 0.0017962 0)
(-7.1384e-05 0.00177348 -1.99271e-16)
(-0.0012326 0.000470442 0)
(-0.00124262 0.000468831 -9.86561e-17)
(1.19991e-05 0.00174875 0)
(-0.00122295 0.000473908 -2.14073e-16)
(-0.00122922 0.000481615 -1.06354e-16)
(0.00119973 0.000477611 2.13741e-16)
(6.78321e-07 0.00174954 -2.03084e-16)
(-1.00315e-05 0.001751 -2.0316e-16)
(-0.00123508 0.000490125 5.55537e-17)
(-1.90621e-06 0.00175038 -2.00307e-16)
(-0.00121817 0.000462703 3.11586e-16)
(-8.13893e-06 0.00174954 -2.02291e-16)
(2.49716e-06 0.00175052 -1.45604e-20)
(-0.00122331 0.000522973 -2.3656e-16)
(-1.09905e-05 0.00175067 2.0063e-16)
(0.00120822 0.000456782 0)
(-0.00122736 0.000480116 -5.02511e-17)
(-6.31708e-07 0.00174979 3.18892e-18)
(-0.00123551 0.000462275 1.00775e-16)
(-3.013e-07 0.00174929 -1.60073e-18)
(-0.0012277 0.000471422 5.04605e-17)
(-0.00116211 0.000431258 0)
(4.62103e-06 0.00175057 -1.46327e-20)
(-0.00133919 0.000564902 3.00917e-16)
(1.06051e-06 0.00175145 2.0447e-16)
(0.00111583 0.000562577 -5.87775e-17)
(-0.00117943 0.000522922 1.95206e-16)
(-3.81304e-07 0.00175034 2.04616e-16)
(0.000894624 0.000352803 2.15026e-16)
(-2.28587e-06 0.0017504 2.03321e-16)
(1.3795e-06 0.00175037 3.17271e-18)
(0.00102534 0.000374868 2.27233e-16)
(0.00109903 0.000386843 -2.12541e-16)
(0.00124994 0.000493835 0)
(-0.00131609 0.000537033 0)
(-1.01117e-05 0.00175056 -1.59108e-18)
(0.00113933 0.000431987 2.79971e-16)
(-9.79664e-06 0.00174959 -1.57973e-18)
(-0.00123038 0.000476462 -9.82429e-17)
(0.00112026 0.000380669 0)
(9.18998e-06 0.00174982 -4.05555e-16)
(1.50665e-06 0.00174999 -4.08071e-16)
(-0.00122397 0.000493618 0)
(-0.00123172 0.000463392 0)
(1.04338e-06 0.00175135 -4.05521e-16)
(-3.4954e-05 0.00176801 0)
(-0.0012216 0.000506447 -1.9548e-16)
(-2.34943e-05 0.00176004 -4.00516e-16)
(-0.00111869 0.00040525 0)
(0.00126746 0.000401299 5.2485e-17)
(1.1504e-07 0.00174816 -1.6074e-18)
(3.99796e-06 0.00175188 2.04312e-16)
(0.000957426 0.00059679 -7.03679e-18)
(4.68425e-07 0.00174996 -2.04794e-16)
(-0.00123851 0.000456326 1.57438e-16)
(-0.00131125 0.000605798 1.38983e-16)
(-1.08706e-05 0.00175027 2.01869e-16)
(-0.00123517 0.000461815 1.45749e-16)
(-1.91418e-06 0.00175078 2.04814e-16)
(-1.0126e-05 0.0017498 -2.02606e-16)
(-1.14077e-05 0.00175002 -2.01909e-16)
(-0.00121925 0.000495933 0)
(-0.00123342 0.00046348 -4.98684e-17)
(-1.23597e-06 0.00174966 -7.98787e-19)
(1.04176e-05 0.00175037 0)
(-0.00121752 0.000494832 1.98689e-16)
(-0.00122814 0.000463551 0)
(1.58547e-06 0.00174984 -2.03402e-16)
(-8.49385e-06 0.00175562 3.16233e-18)
(0.0011977 0.000465272 -2.14736e-16)
(1.59052e-06 0.00175018 -4.10854e-16)
(-0.00132294 0.000517828 3.41577e-16)
(-6.47695e-07 0.0017501 0)
(-5.56067e-07 0.00175064 2.02761e-16)
(-3.40847e-07 0.0017503 0)
(-6.08631e-08 0.00175019 2.02821e-16)
(1.29592e-06 0.00174986 -2.02308e-16)
(0.00102174 0.000400318 1.21377e-16)
(4.66571e-07 0.00174954 2.02451e-16)
(8.0894e-07 0.00175347 -1.46578e-20)
(-1.61577e-08 0.00175008 2.04804e-16)
(-1.1836e-05 0.00175034 4.0465e-16)
(-0.00123357 0.000471473 0)
(-0.0012327 0.000475049 -5.25278e-17)
(-1.03091e-05 0.00175003 0)
(-2.35282e-07 0.00175017 0)
(-1.20165e-06 0.00174945 -2.06614e-16)
(1.04294e-05 0.00175088 2.031e-16)
(8.62585e-06 0.00175094 2.03865e-16)
(-0.00122989 0.000479254 2.57698e-16)
(9.29552e-06 0.00175009 2.03296e-16)
(-6.72451e-07 0.00175057 -2.04795e-16)
(-1.6722e-06 0.00175023 0)
(-4.61928e-07 0.00175009 -1.47066e-20)
(-0.00123266 0.000474883 1.00376e-16)
(1.03284e-05 0.00175029 0)
(9.76226e-06 0.00174971 2.03438e-16)
(-4.12625e-06 0.00175348 -2.05258e-16)
(-0.00123824 0.000461722 0)
(-1.29891e-08 0.00175013 0)
(0.00120894 0.000465272 -2.13232e-16)
(-2.0917e-07 0.0017513 1.5988e-18)
(-1.69711e-07 0.0017517 -3.98541e-19)
(-8.41772e-06 0.00174865 -7.92073e-19)
(-1.14607e-05 0.00174982 1.4602e-20)
(-9.22676e-06 0.00174911 7.9272e-19)
(-0.00123328 0.000539162 -1.24096e-16)
(-1.10296e-05 0.00174897 2.03612e-16)
(5.8604e-06 0.00174994 0)
(-1.08146e-05 0.00174921 2.02164e-16)
(-1.09603e-05 0.00174956 -2.0251e-16)
(-1.15548e-05 0.00175029 -2.0345e-16)
(-0.0014869 0.00121654 -3.08465e-16)
(-0.000283298 0.00035024 -3.84299e-16)
(1.06492e-05 0.00175051 -2.03715e-16)
(-1.05343e-06 0.00175022 -2.03074e-16)
(1.23297e-07 0.00175061 -2.03027e-16)
(9.57126e-06 0.00174969 2.035e-16)
(-0.00123891 0.000467347 -2.02475e-16)
(-1.22745e-05 0.00174946 2.02142e-16)
(-1.03159e-06 0.0017504 -2.02692e-16)
(-8.02149e-06 0.00175374 -4.0317e-16)
(-9.09842e-07 0.00174984 -1.60331e-18)
(1.13772e-05 0.0017498 2.0273e-16)
(0.00119953 0.000460017 2.13266e-16)
(-3.72586e-06 0.00175094 -2.02731e-16)
(6.87455e-07 0.00175008 -1.45905e-20)
(0.00127821 0.000527293 -2.63007e-16)
(-3.75402e-07 0.00175002 0)
(-7.73753e-07 0.00175007 0)
(-1.22225e-05 0.00174981 -4.06256e-16)
(-0.00123271 0.000473045 1.00717e-16)
(2.28977e-07 0.00174905 -4.00496e-19)
(-1.41705e-05 0.00175039 2.12281e-19)
(0.0012065 0.000451295 1.41757e-17)
(-1.30312e-05 0.00175123 2.03077e-16)
(1.29039e-05 0.00175046 2.0305e-16)
(1.18206e-05 0.00175016 -2.02902e-16)
(2.95283e-06 0.00174999 -2.03473e-16)
(-1.38547e-05 0.00175055 1.45952e-20)
(-0.00128072 0.000454378 -2.15476e-16)
(-0.00104856 0.000403734 2.6548e-16)
(-1.24642e-06 0.00174838 -1.4675e-20)
(-7.794e-07 0.00175014 -2.02591e-16)
(-0.0012218 0.000496515 5.1124e-17)
(1.11159e-06 0.00174997 -1.47069e-20)
(-1.27783e-05 0.00174925 8.05156e-19)
(1.28296e-05 0.00174982 -4.06046e-16)
(5.84191e-06 0.00174818 2.03835e-16)
(1.08917e-05 0.00174946 -2.03833e-16)
(1.07141e-05 0.00174983 -2.03828e-16)
(1.28124e-05 0.00175005 2.03127e-16)
(1.06712e-05 0.00174957 1.98681e-19)
(1.27161e-05 0.0017501 0)
(0.00120893 0.000457121 0)
(-1.03529e-05 0.00175022 2.0449e-16)
(-8.35154e-07 0.00175205 0)
(2.30991e-06 0.00175137 2.03738e-16)
(1.27436e-05 0.00175004 0)
(1.26888e-05 0.00175019 2.03195e-16)
(1.28575e-05 0.00174991 -9.9192e-20)
(1.36336e-06 0.00175142 1.99365e-16)
(1.15478e-05 0.0017508 0)
(-3.27672e-06 0.00175183 0)
(-1.07462e-05 0.00175155 -2.0471e-16)
(-0.00122992 0.000475416 -2.4726e-21)
(1.13266e-05 0.00174999 0)
(-2.58741e-05 0.00177993 0)
(1.11339e-05 0.00175002 0)
(-0.00120259 0.000458682 1.57171e-16)
(8.84505e-07 0.00175032 -2.02844e-16)
(-7.99398e-06 0.00175378 2.04683e-16)
(1.1642e-05 0.00175105 -9.94056e-20)
(-0.00120491 0.00050433 5.5677e-17)
(-0.00122319 0.000497295 -5.08323e-17)
(1.01913e-05 0.00175072 -2.03822e-16)
(-3.03596e-06 0.00174734 0)
(-4.30063e-07 0.00175313 -2.03902e-16)
(1.03233e-05 0.00175085 1.46475e-20)
(1.28117e-05 0.00174982 -2.03661e-16)
(-1.28692e-06 0.00174611 4.05045e-16)
(0.00116657 0.00039562 -3.65597e-16)
(0.00120615 0.000467243 -4.30922e-16)
(-1.76529e-06 0.00175067 4.07254e-16)
(0.00119046 0.00046915 0)
(1.00815e-05 0.00175085 0)
(1.30131e-05 0.00174956 -3.97001e-19)
(-0.00125509 0.000496869 -1.84024e-16)
(-0.0012278 0.000502482 1.05906e-16)
(8.05122e-07 0.00174939 -1.00205e-19)
(1.01792e-05 0.001751 2.03873e-16)
(1.08535e-06 0.0017501 -2.03132e-16)
(-0.00112246 0.00107316 1.02778e-16)
(9.63687e-06 0.0017508 7.96854e-19)
(-1.24844e-05 0.00175107 2.03304e-16)
(-1.023e-06 0.00175248 2.04074e-16)
(-0.00140212 0.000717741 -2.01502e-16)
(9.95679e-06 0.00175135 0)
(-7.16554e-07 0.00175029 4.01578e-19)
(-2.67327e-06 0.00175194 -2.03107e-16)
(-0.00123358 0.000467714 0)
(0.0012458 0.000343355 3.85788e-16)
(-0.00121477 0.000505609 5.36684e-17)
(9.52305e-06 0.00175097 -7.96985e-19)
(1.33552e-06 0.00175067 -2.03831e-16)
(-1.11116e-05 0.00174907 -2.03659e-16)
(-0.00122772 0.000493162 3.04098e-16)
(9.5625e-06 0.00175156 -2.04091e-16)
(-1.46073e-05 0.00174972 7.93028e-19)
(7.66658e-07 0.00174936 2.00593e-19)
(1.18612e-05 0.00174975 0)
(-4.00601e-07 0.00175281 0)
(1.20172e-05 0.00174961 0)
(1.25164e-06 0.00175069 0)
(-0.00122972 0.000467552 -5.05811e-17)
(-1.30949e-05 0.00174908 0)
(-8.59266e-07 0.00175019 0)
(0.00129961 0.00060795 1.57511e-16)
(8.37714e-07 0.00175071 0)
(-7.08365e-05 0.00182201 0)
(-3.49444e-07 0.00175277 4.08014e-16)
(6.4436e-07 0.00174937 0)
(0.0011976 0.000440082 -4.8115e-17)
(0.00120511 0.000467987 0)
(0.00107805 0.000536921 1.05925e-16)
(0.00118129 0.000425928 -2.062e-16)
(1.37025e-06 0.00175091 -4.07228e-16)
(-0.00111075 0.000482487 0)
(5.40532e-07 0.00175075 -1.99183e-19)
(-0.00122137 0.000494183 -9.9159e-17)
(1.33576e-05 0.00174986 0)
(0.000596876 0.000682872 0)
(2.13105e-07 0.00175024 -4.02036e-19)
(9.80328e-07 0.00175473 -1.26936e-17)
(0.000451228 0.00107474 -7.05272e-18)
(1.18519e-05 0.0017488 0)
(1.41714e-06 0.00175018 0)
(-0.00122705 0.000483268 0)
(-5.58136e-07 0.00175011 4.06414e-16)
(-4.95543e-07 0.00175053 0)
(0.0012023 0.000461351 3.89459e-21)
(0.000339802 0.00100959 0)
(-6.11283e-08 0.00175038 4.1445e-19)
(-1.46885e-07 0.00175127 -2.04148e-16)
(9.00269e-07 0.00174998 -2.03128e-16)
(7.65201e-07 0.00174947 -4.0271e-19)
(3.24947e-07 0.0017497 0)
(6.82418e-07 0.00175124 1.4723e-20)
(0.0012341 0.000432795 0)