/*--------------------------------*- C++ -*----------------------------------*\
  =========                 |
  \\      /  F ield         | OpenFOAM: The Open Source CFD Toolbox
   \\    /   O peration     | Website:  https://openfoam.org
    \\  /    A nd           | Version:  12
     \\/     M anipulation  |
\*---------------------------------------------------------------------------*/
FoamFile
{
    format      ascii;
    class       volVectorField;
    location    "0.05";
    object      U;
}
// * * * * * * * * * * * * * * * * * * * * * * * * * * * * * * * * * * * * * //

dimensions      [0 1 -1 0 0 0 0];

internalField   nonuniform List<vector> 
4428
(
(0.000380382 0.000144543 1.01429e-16)
(-0.00038481 0.000159581 -9.03836e-17)
(-0.000353956 0.00016337 0)
(-0.000363077 0.000154985 0)
(0.000348249 0.000292926 8.16402e-17)
(0.000372413 0.000305115 3.34135e-21)
(-0.000349247 0.000208186 0)
(-0.000388595 0.00013795 1.46412e-16)
(0.000379958 0.000159502 -2.49068e-16)
(0.000395496 0.000111873 9.95387e-17)
(-0.000362708 0.000122943 -1.73331e-16)
(0.000352574 0.000159487 -1.76864e-16)
(-0.000405032 7.88555e-05 -2.03661e-16)
(-0.000120655 0.000445629 -9.58166e-17)
(0.00037489 0.000144808 0)
(0.000347224 0.000124106 0)
(0.000395694 0.000144334 0)
(-0.00036275 0.000122921 0)
(-0.000406817 7.80902e-05 0)
(0.000381379 0.000142141 0)
(0.00013376 0.000110283 -4.48037e-16)
(-0.000383869 0.000146506 -1.77703e-16)
(-0.000361045 0.0001579 0)
(-0.000401897 0.000129661 0)
(-0.000381858 0.000145882 2.26619e-17)
(-0.000362552 0.000129415 0)
(-0.000367945 0.000201254 1.03357e-16)
(0.000374185 0.000112653 2.07805e-16)
(0.000353185 0.000174919 0)
(-0.000412433 8.7471e-05 0)
(0.000386335 8.28485e-05 0)
(-0.000388066 0.000144711 -1.84205e-16)
(0.000389449 0.000124533 -9.002e-17)
(-0.000400582 0.000199326 -2.77426e-16)
(-1.15164e-05 0.000523271 4.69776e-17)
(-0.000386078 0.000151819 1.99864e-16)
(-0.000383339 0.000197915 -4.41391e-21)
(0.0003514 0.000473798 1.27045e-17)
(-4.68101e-05 0.000453557 -2.62236e-17)
(-0.000363774 0.000161605 0)
(0.000387663 0.000139209 0)
(0.000339483 0.000102778 0)
(0.000362276 0.000121848 9.24324e-17)
(-0.000398048 0.000124864 1.66059e-16)
(0.000379793 0.00011087 0)
(0.000306531 0.000116924 0)
(0.000357987 0.000348866 -9.97849e-17)
(-0.000360163 0.00018048 2.03145e-16)
(-0.000370048 0.000162307 2.24462e-16)
(-0.00038082 0.000169983 0)
(0.000382042 0.000163835 0)
(0.000332318 0.000171995 1.88124e-16)
(0.000395389 0.000114982 -9.13192e-17)
(0.000337003 0.000176863 0)
(0.000349645 0.000152643 -1.39785e-17)
(0.000237858 0.000107755 0)
(0.000347782 0.000168949 -9.29936e-17)
(-0.000363261 0.000111759 0)
(0.000316847 0.000341141 1.82962e-16)
(0.0003743 0.000124447 -1.82012e-16)
(0.000393192 0.000151122 1.67098e-16)
(-0.000396197 0.000124843 0)
(0.000341088 0.000132733 2.79954e-16)
(-0.000387513 0.000144384 9.26989e-17)
(-0.000385307 0.000152252 0)
(0.000355033 0.00015569 0)
(-0.000394662 0.000126545 1.73159e-16)
(-0.000365251 0.000157729 -1.85822e-16)
(0.000368315 0.000129337 -1.82186e-16)
(-0.000382361 0.000165188 -3.61911e-16)
(-0.000396214 0.000120785 -9.16139e-17)
(0.000367971 0.000169566 2.12655e-16)
(0.0004074 0.000183731 5.80512e-17)
(-0.000357458 0.000151942 4.46957e-17)
(0.000378235 0.000133731 1.96651e-16)
(-6.53861e-06 0.000511608 -1.83297e-16)
(0.000397671 0.000184126 0)
(0.000409408 0.000166872 0)
(-0.000354945 0.000209989 -1.18145e-16)
(0.000267485 0.000121978 -4.19053e-21)
(0.000348242 0.000179978 -1.9754e-16)
(-0.000391961 0.000122229 0)
(0.00035857 0.000175635 -1.81064e-16)
(0.000368796 0.000159265 -1.72067e-16)
(0.00039344 0.000142388 3.18307e-16)
(-0.000427809 0.000123314 -2.54693e-16)
(-5.51463e-05 0.00058655 1.15145e-16)
(-0.00039169 0.000143922 0)
(-0.000386421 0.000146296 -9.60348e-17)
(0.000352305 0.000155267 2.04743e-17)
(0.000379387 0.000111042 8.36654e-17)
(0.000388312 0.000139164 -1.5937e-16)
(-0.000393053 0.000156257 0)
(-0.00039915 0.000149877 0)
(-0.000385782 0.000152632 9.81701e-17)
(-0.000372472 0.000159996 1.67121e-16)
(0.000394034 0.000154768 1.13532e-16)
(-0.000403868 0.000154309 -1.19904e-16)
(-0.000396842 0.000119331 9.28713e-17)
(0.000359212 0.000202606 0)
(0.000357209 0.000166268 -2.25143e-17)
(0.000369437 0.000145896 0)
(0.000379144 0.000132337 0)
(0.00034268 0.000130814 -1.87988e-16)
(0.000346519 0.000168138 -1.03702e-16)
(0.000347555 0.000166022 2.44822e-21)
(0.000374389 0.000154169 1.90328e-16)
(-0.000384581 0.000187997 -1.22457e-16)
(0.000398899 0.000153157 -1.20824e-16)
(0.000357685 0.000186121 0)
(0.000372844 0.000120674 1.64697e-16)
(0.000372888 0.00014275 -1.94806e-16)
(-0.000358681 0.000149826 2.66373e-21)
(0.000352947 0.000134905 1.65966e-16)
(-0.000220222 0.000137554 1.15543e-16)
(-0.000397098 0.000118077 1.80234e-16)
(-8.48122e-05 0.000499251 0)
(0.000155081 0.000122083 5.24749e-17)
(-0.000400522 0.0001298 8.87659e-17)
(0.000405726 0.000162815 -1.12861e-16)
(0.000410474 0.000158113 2.11534e-16)
(-0.000355249 0.000211794 2.4128e-16)
(0.000257935 0.000422146 -1.96898e-16)
(0.000386797 0.000126618 -3.03622e-16)
(6.83947e-06 0.000523795 1.78761e-16)
(-0.000388023 0.000144571 0)
(-0.000393575 0.000128868 -2.7226e-16)
(0.000357466 0.000153817 9.95097e-17)
(-0.000385267 0.000157912 -3.04103e-16)
(-0.000387242 0.000151249 9.66776e-17)
(-0.000396233 0.000121955 -1.87134e-16)
(-0.000378627 0.000156961 0)
(0.00038617 0.000154873 2.24129e-16)
(0.000365396 0.000140987 0)
(0.000371273 0.000144588 0)
(0.000397082 0.000171429 6.53742e-21)
(0.000404244 0.000168884 -2.43673e-16)
(-0.000396539 0.000119776 -1.8239e-16)
(-0.000387849 0.000148126 -1.83552e-16)
(-0.000383687 0.000155539 1.4395e-16)
(-0.000386329 0.000190236 -1.23708e-16)
(-0.000387497 0.000140201 -9.67493e-17)
(0.00036582 0.000147443 0)
(0.000368911 0.000148199 -1.99431e-16)
(0.000384347 0.000143031 0)
(0.000364691 0.000140568 9.67653e-17)
(0.00039774 0.000186717 1.28476e-16)
(-8.7654e-06 0.000369839 -9.13956e-17)
(0.000411518 0.000103803 2.88891e-16)
(-8.16921e-06 0.000521938 4.54413e-17)
(-0.000387739 0.00014478 -1.99515e-16)
(-0.000250368 0.000114473 1.00284e-16)
(0.000369478 0.000112174 -9.67711e-21)
(0.000413732 0.000139436 -2.48626e-16)
(-0.000386965 0.000151092 2.91597e-16)
(0.000391366 0.000144464 0)
(0.000359769 0.000240159 -1.77129e-16)
(0.000381798 0.000110837 -9.48493e-17)
(0.000383307 0.000132143 -1.78769e-16)
(-0.00039114 0.000124214 -9.12353e-17)
(-0.00038493 0.000160508 1.95449e-16)
(0.00037387 0.000148598 0)
(0.000407802 0.000122568 0)
(-0.000135366 6.05129e-05 -2.17179e-16)
(-0.000405219 0.000176789 1.19566e-16)
(-0.000397044 0.000121288 0)
(-0.000385997 0.000141366 0)
(0.000407385 0.000124696 0)
(-0.000386443 0.000147712 1.94868e-21)
(-0.000387046 0.000168025 9.36797e-17)
(-0.000394239 0.00012669 -9.38008e-17)
(0.000385741 0.000154223 4.01031e-21)
(-0.000388142 0.000145179 0)
(0.000345003 0.000148199 0)
(0.0003557 0.000463274 -1.16377e-17)
(-0.00040848 0.000178266 2.29081e-16)
(0.000390035 0.000138939 0)
(0.000336172 0.000177617 2.14593e-16)
(0.000367771 0.000161237 2.17943e-16)
(-0.000407803 0.000176216 1.14321e-16)
(-5.9123e-05 0.000519797 -6.93287e-21)
(-0.000374503 0.000156204 1.7508e-16)
(-0.000390179 0.000136356 1.91953e-16)
(0.000360425 0.000135533 0)
(-0.000387413 0.000145035 3.00576e-16)
(-0.000381865 0.000181937 -9.52183e-17)
(0.000382435 0.0001491 0)
(-0.000386371 0.000150682 0)
(0.000333843 0.000137091 3.43576e-16)
(0.000386632 0.000173975 0)
(0.000375262 0.000136112 0)
(0.000390842 0.000195144 2.58474e-17)
(0.000380843 0.000133387 0)
(0.000380423 0.000168547 -3.67878e-16)
(-0.000372368 0.000182173 0)
(-0.000371934 0.000180979 -1.8087e-16)
(-0.000371546 0.000180429 2.70928e-16)
(-0.000368787 0.000176941 8.88787e-17)
(0.000526747 0.000305183 1.48761e-16)
(-0.000123095 0.000550287 0)
(0.000381482 0.000173498 2.13767e-16)
(-0.000389924 0.000141177 -1.94083e-16)
(0.000308346 0.000164129 -1.9031e-16)
(-0.000392746 0.000125103 0)
(0.000346878 0.000137858 -1.76634e-16)
(0.000377331 0.000132415 -2.98063e-18)
(-0.000385687 0.000148438 9.32595e-17)
(-8.59569e-05 0.000598673 -1.77911e-16)
(-0.00019739 0.000518933 1.11843e-17)
(0.000255761 0.000133101 0)
(0.000388104 0.000168856 0)
(0.000430648 0.000145578 0)
(0.000383862 0.000161367 5.92915e-21)
(-0.000389302 0.000136728 0)
(0.00037678 0.000139267 0)
(-0.000376152 0.000178338 -1.40091e-16)
(-0.000372778 0.000176011 1.83787e-16)
(1.7127e-05 0.000522221 -1.84695e-16)
(-0.000366093 0.000145821 1.99301e-16)
(-0.000370352 0.000179561 -4.536e-17)
(0.000382965 0.000160399 1.95367e-16)
(0.00041503 0.000141576 -6.15128e-17)
(-0.000383644 0.000149773 1.85472e-16)
(0.00040139 0.000179585 0)
(-0.000372634 0.00018009 0)
(-0.000387103 0.000145409 0)
(-0.000388477 0.000149479 -1.08728e-16)
(0.000374724 0.000134255 -1.93046e-16)
(0.000357103 0.000151948 3.81646e-21)
(-0.000385944 0.000150461 0)
(-0.000387227 0.000140851 9.83256e-17)
(-0.000239523 0.00047603 0)
(0.000327972 0.000212016 0)
(6.36264e-05 0.000580321 8.61766e-17)
(0.000363082 0.000150424 5.74636e-17)
(-0.000375834 0.000173679 0)
(-0.000374408 0.000177244 0)
(-0.000374793 0.000175869 1.8822e-16)
(-0.000375827 0.000174806 -1.86177e-16)
(-0.000391966 0.000127619 2.97774e-16)
(-3.87686e-05 0.000104589 5.13891e-17)
(-0.000408375 0.000161282 -5.90076e-17)
(-0.000365944 0.000177861 6.23713e-17)
(0.000374323 0.000150142 2.23739e-17)
(-0.000388623 0.00013796 -9.62598e-17)
(-0.00010563 0.000393704 -1.01157e-16)
(-0.000383858 0.000184399 1.89329e-16)
(-0.000390045 0.000139338 1.92819e-16)
(0.000447018 0.000298128 0)
(-4.33453e-05 0.00039033 0)
(-0.000405198 0.000166204 6.05657e-21)
(0.000367634 0.0001461 2.04398e-16)
(0.000382444 0.00016299 -1.05652e-16)
(-0.000373044 0.00017565 1.81891e-16)
(0.000328995 0.000121795 -1.31319e-16)
(6.82667e-05 4.51974e-05 1.07918e-16)
(-0.000374283 0.000175991 -3.65593e-16)
(7.07715e-07 0.000518715 0)
(-0.000443777 0.000153543 -3.66797e-17)
(-0.00037762 0.000173926 -2.11766e-16)
(-0.000376646 0.000174632 1.90023e-16)
(-0.000134593 6.71754e-05 2.1722e-16)
(-0.000386972 0.000141739 0)
(0.000416916 8.2337e-05 1.23015e-16)
(-0.000374463 0.000174485 -9.37864e-17)
(-0.000384532 0.000149037 -1.00074e-16)
(0.000397952 0.00014357 0)
(-0.000374848 0.000175336 0)
(-0.000261507 0.000569951 1.3728e-16)
(-0.000398521 0.000135046 -1.8374e-16)
(0.000376948 0.000129434 0)
(0.00039172 0.000187362 2.37184e-16)
(0.000374384 0.000149367 1.23126e-17)
(-7.46297e-05 0.000421646 2.58447e-16)
(-0.000387272 0.000146375 0)
(0.000366452 0.000156494 1.98135e-16)
(0.000379351 0.000142598 -2.63566e-16)
(-0.000387756 0.000140193 1.943e-16)
(0.000407547 0.000199376 0)
(6.55894e-05 4.30416e-05 -1.10466e-16)
(-0.000429941 0.000179298 -2.61781e-22)
(-6.41467e-05 0.000528203 9.63427e-17)
(0.000375765 0.000142522 0)
(-0.000391118 0.000129715 -2.99181e-16)
(0.000349775 0.000197834 3.93352e-16)
(0.000342742 0.000196494 -9.12457e-17)
(0.000379251 0.000149298 -1.32952e-17)
(0.000381543 0.000130436 -1.26249e-16)
(0.000381962 0.000151473 1.94441e-16)
(0.000381305 0.000141657 0)
(-0.00042531 0.000123228 1.43582e-16)
(-0.000400965 0.000131089 -1.87095e-16)
(-0.000378401 0.000170338 -7.4721e-19)
(0.000359098 0.000176516 0)
(0.000353465 0.000158464 2.14675e-16)
(0.00012302 4.10463e-05 2.31987e-16)
(-0.000384647 0.000143314 1.95537e-16)
(-0.000373571 0.000174083 2.07966e-16)
(-0.000383143 0.000176167 0)
(-0.000235696 0.000555737 1.96767e-16)
(-0.000388863 0.00014109 5.90414e-21)
(0.000360492 0.000138259 1.14696e-16)
(-0.000386636 0.000142356 0)
(-0.000376526 0.000173697 -1.18785e-17)
(-0.000376062 0.000174968 0)
(-0.000375435 0.000174998 -1.85915e-16)
(-0.000386273 0.000151301 0)
(-5.71677e-05 0.000579016 -1.19595e-16)
(0.000247561 0.000143342 -3.44563e-16)
(0.000368776 0.000196208 1.25599e-16)
(-0.000387471 0.000141428 9.79726e-17)
(0.00036999 0.000146602 0)
(0.000395794 0.000192425 -1.26569e-16)
(-6.50814e-05 0.000563584 -1.90458e-16)
(0.000231809 7.80181e-05 -2.23909e-16)
(0.000374834 0.000153962 0)
(0.000380956 0.0001711 0)
(0.000372784 0.000158413 -1.87619e-16)
(-0.000390282 0.000132037 0)
(-0.000384765 0.000146951 1.96573e-16)
(-9.63023e-05 0.00062123 -6.17619e-18)
(-0.000408182 0.000182605 -1.01493e-16)
(-0.000356006 0.000137163 6.10889e-17)
(0.000368682 0.000142879 3.8933e-16)
(-0.000273657 0.000842166 -1.46082e-16)
(0.000630452 0.000248727 -1.97882e-16)
(0.000357717 0.000170399 -2.12589e-16)
(-0.000382087 0.000149033 9.64322e-17)
(-0.000382925 0.000179766 -1.21776e-17)
(-0.000373212 0.0001766 -1.89498e-16)
(0.000373709 0.000142736 2.09793e-16)
(-0.000385684 0.000143072 0)
(-0.000386583 0.000142666 9.90865e-17)
(-0.00044397 0.000152495 1.50963e-16)
(-0.000387648 0.000185753 0)
(-0.000381554 0.00017682 0)
(0.000390427 0.000187435 -1.23286e-16)
(0.000355284 0.00013515 0)
(-0.000387235 0.000145037 0)
(0.000361538 0.000138671 0)
(-0.000375828 0.000173903 1.18326e-17)
(-0.000380688 0.00017142 7.5475e-19)
(0.000351318 0.000111191 0)
(0.000377806 0.000139393 1.92893e-16)
(-5.67925e-07 0.000523097 0)
(0.00038194 0.000121428 0)
(-0.000388199 0.000142965 4.92547e-17)
(-0.000390052 0.000138886 -3.01489e-16)
(3.62628e-05 0.000228602 0)
(-0.000383593 0.000148301 -1.93422e-16)
(-0.000409082 8.97631e-05 9.23837e-17)
(-0.000417311 0.000158726 -4.52325e-21)
(-0.000410447 0.000136752 -2.43402e-16)
(-0.000444383 0.000149151 1.51165e-16)
(-0.000377499 0.000181162 0)
(-0.000390619 0.000134568 2.02119e-16)
(-0.000383441 0.000147322 1.00297e-16)
(0.000377294 0.000143063 0)
(-0.000380464 0.000129045 1.62548e-16)
(-0.000385691 0.000142898 -2.68744e-16)
(-6.52773e-06 0.000505573 0)
(-0.000373618 0.000172648 -2.80442e-16)
(-0.000384582 0.000162711 0)
(-0.000387832 0.000144124 0)
(0.000383385 0.000139594 2.03122e-16)
(-0.000386694 0.000141536 1.01387e-16)
(0.000337594 0.000119487 2.14786e-16)
(0.00038042 0.00015418 -2.03935e-16)
(-0.000270313 0.000132736 0)
(-0.000408996 0.000137225 0)
(-0.000383933 0.000148261 0)
(0.00037543 0.000146275 -2.12713e-16)
(0.000388853 0.000173551 0)
(0.000380045 0.000142864 0)
(-0.000411434 0.000178374 -2.99369e-16)
(6.6485e-05 0.000505044 2.17991e-16)
(-0.000378817 0.000178593 1.92283e-16)
(0.000399632 0.000122137 -2.15593e-16)
(-8.8572e-06 0.000268659 -6.19441e-17)
(-0.000386009 0.000150667 0)
(-0.000384087 0.000164179 2.99761e-16)
(-0.00036757 0.000176588 -1.80343e-16)
(4.53773e-05 0.000395953 1.08289e-16)
(0.000407893 7.60475e-05 0)
(0.000417558 0.000103788 1.14709e-16)
(0.00036252 0.000155743 1.77805e-16)
(-7.62906e-05 5.78045e-05 2.10735e-16)
(-0.000385737 0.000141969 -9.03948e-17)
(0.000378982 0.000150482 0)
(0.000235324 8.91564e-05 0)
(0.000328663 9.8638e-05 3.86496e-16)
(-0.000384419 0.000148425 0)
(0.000397868 0.000124017 -1.07231e-16)
(-0.000416232 0.000105504 1.26097e-16)
(-0.000387506 0.000147664 9.58138e-17)
(0.000366681 0.000146755 -1.95171e-16)
(-0.000446854 0.000166725 -1.35984e-16)
(-0.000371934 0.00015844 1.84902e-16)
(-0.000420972 0.000193811 1.0101e-16)
(-0.000287743 0.000114682 -1.08944e-16)
(-0.000387888 0.000146427 0)
(-0.000386436 0.000146897 0)
(-3.02242e-05 0.000194227 0)
(8.80118e-06 0.000504169 -2.50986e-16)
(-0.000408628 0.000140919 0)
(-0.000388447 0.000192642 -8.72321e-17)
(0.000375234 0.0001425 3.7617e-16)
(0.000359503 0.000152509 -1.11177e-16)
(0.000376173 0.000131053 3.79536e-16)
(0.000380215 0.000156007 -5.49165e-17)
(0.000376605 0.000142902 -5.54586e-21)
(-0.000382676 0.000154665 -4.91299e-17)
(-0.000383705 0.000150301 -9.63686e-17)
(-3.16028e-05 0.000593016 5.97404e-18)
(-0.000385091 0.000148694 -1.953e-16)
(-0.000382476 0.000160364 -5.15041e-17)
(0.000357665 0.000155766 0)
(-0.000386426 0.000148687 -9.75887e-17)
(-0.000421031 0.000159485 -3.58929e-16)
(-0.000379159 0.00017002 -1.39397e-17)
(-0.000387928 0.000144807 0)
(-0.000391629 0.000124719 4.83505e-17)
(-0.000386091 0.000142943 -9.87685e-17)
(0.000408226 0.000180157 -2.08727e-16)
(-0.00038299 0.000152186 -9.94734e-17)
(5.78459e-05 0.00057952 6.96568e-18)
(0.000367132 0.000132543 2.44316e-17)
(-1.09357e-05 0.000563458 -1.98864e-16)
(-0.000426742 0.000183849 2.82358e-16)
(-0.00037308 0.000124379 -3.98536e-16)
(0.000375902 0.00014491 1.03056e-16)
(-0.000427054 0.000184084 1.25939e-16)
(5.50707e-05 0.000291771 8.11342e-17)
(-0.000382223 0.000151566 1.97983e-16)
(0.000366036 0.000123692 1.76673e-16)
(-4.22507e-06 0.000552831 0)
(-8.54951e-06 0.000481235 -2.83931e-16)
(-0.000383402 0.000158756 -1.57231e-16)
(0.000372038 0.000126712 -5.19594e-17)
(-4.36275e-06 0.000551345 7.9029e-19)
(0.000451378 0.000179771 9.76727e-17)
(-0.00035456 0.00014304 2.95303e-16)
(-0.000387291 0.000147149 -5.09894e-17)
(-0.000393206 0.00013573 0)
(-0.000399426 0.000144339 2.29036e-16)
(0.000371437 0.000150625 -2.023e-16)
(-0.000383864 0.000150543 -9.6803e-17)
(0.000369301 0.000147129 0)
(-8.74457e-07 0.000548439 -2.01877e-16)
(-0.000421213 0.000158835 1.20772e-16)
(0.000432061 0.000386952 -3.66336e-16)
(0.000381258 0.000145461 0)
(-2.43323e-06 0.000548481 0)
(0.000391144 0.000156684 5.93626e-21)
(1.66608e-06 0.000546817 -2.02115e-16)
(8.68324e-07 0.000548424 4.01911e-16)
(-0.0003827 0.000150312 4.985e-17)
(-3.43876e-05 0.000565172 1.97712e-16)
(-1.43873e-06 0.00054647 0)
(-3.52075e-06 0.000549036 2.0116e-16)
(-0.000382969 0.000149331 0)
(0.000444103 0.000242126 0)
(1.83279e-06 0.00054761 0)
(-8.40752e-07 0.00054758 -2.01443e-16)
(-0.000382138 0.000157195 0)
(-1.98946e-06 0.000547935 4.05281e-16)
(-0.000386713 0.000146673 0)
(-7.95819e-07 0.000547918 -2.02423e-16)
(-0.000383429 0.000149503 -2.93188e-16)
(-9.48751e-07 0.000546098 0)
(-0.000379781 0.000157694 9.67043e-17)
(-0.000174247 0.000626072 -4.71379e-17)
(0.000405445 0.000186687 2.50262e-16)
(0.000421826 0.00015743 0)
(1.09861e-07 0.000547562 1.45295e-20)
(-2.14959e-06 0.000548352 -1.99393e-16)
(-0.000391951 0.000125655 -8.51764e-17)
(0.000366109 0.000164731 -2.05747e-16)
(0.000323103 0.000132475 0)
(0.000373839 0.000144114 3.10268e-16)
(-3.93608e-07 0.00054765 2.02003e-16)
(-0.000382325 0.000149814 0)
(-1.35162e-05 0.000553716 2.00567e-16)
(-4.10523e-07 0.000546346 0)
(-9.28831e-07 0.000547219 -2.04884e-16)
(-0.000384787 0.000149971 0)
(0.000377317 0.000168133 1.9527e-16)
(-0.000386086 0.000147711 2.68195e-21)
(1.18311e-07 0.000546176 2.02889e-16)
(0.000381805 0.000140206 -4.19357e-16)
(6.04741e-05 0.000318439 0)
(-1.9818e-06 0.000548298 0)
(0.000424542 0.000196363 1.46627e-16)
(0.000379527 0.000130825 0)
(-4.26784e-05 0.000587821 0)
(-0.000386443 0.000146091 -3.52296e-16)
(-1.47572e-05 0.000561029 0)
(-0.00038381 0.000150171 9.75586e-17)
(-0.000325243 0.000278044 -5.25384e-17)
(-0.000382005 0.000157289 2.01115e-16)
(1.34199e-07 0.00054669 -4.04632e-16)
(-0.00039151 0.00014572 5.41581e-17)
(-0.000379698 0.000157829 1.92967e-16)
(-6.70141e-07 0.000546982 0)
(-1.30162e-06 0.000546134 -1.98253e-16)
(0.000350865 0.000116505 0)
(1.84757e-07 0.000547349 -2.0421e-16)
(3.70089e-07 0.000546761 0)
(-2.5773e-05 0.000568556 2.0128e-16)
(-1.53702e-06 0.000483905 -2.27208e-16)
(-0.000383922 0.000171406 1.17409e-16)
(-7.9088e-06 0.000554688 9.81749e-20)
(0.00027198 8.00222e-05 0)
(-0.000399148 0.000145006 7.99864e-17)
(-0.00037854 0.000159714 4.6886e-17)
(1.18291e-06 0.000545906 4.05022e-16)
(-2.16956e-06 0.000547985 2.01605e-16)
(-0.000391352 0.000152232 -4.66006e-16)
(3.45954e-07 0.000546892 2.02687e-16)
(0.000341657 0.000104421 6.54069e-21)
(-2.83001e-06 0.000546956 2.00605e-16)
(-0.000387674 0.000147328 0)
(-0.00038133 0.000153531 5.12188e-17)
(-2.74422e-07 0.000547079 -1.45953e-20)
(0.000373377 0.000190371 2.10085e-16)
(-0.000385243 0.000150749 -1.02843e-16)
(-0.000379962 0.00015712 -8.99009e-17)
(-1.37947e-06 0.000547676 -2.01528e-16)
(0.000373992 0.000146853 3.516e-18)
(-3.26685e-08 0.0005473 -1.45992e-20)
(-0.000389428 0.000146902 4.80871e-17)
(1.74732e-06 0.000546302 0)
(-0.000386483 0.000145849 0)
(-3.20615e-06 0.000547706 -2.0147e-16)
(2.7748e-07 0.000547296 2.02269e-16)
(0.000371758 0.000155531 -2.45283e-17)
(-0.000393029 0.000136198 2.19723e-16)
(-2.92338e-06 0.000547044 1.99775e-16)
(6.69234e-07 0.000546191 0)
(-0.000382763 0.000155741 0)
(-0.000381225 0.00015706 1.53405e-16)
(-0.000394858 0.000123223 0)
(-2.05848e-05 0.000336092 -1.0831e-16)
(-1.00124e-07 0.000547259 2.02713e-16)
(-0.000380313 0.000156497 -1.45374e-16)
(-0.000382753 0.000151374 0)
(-0.000381257 0.000144888 5.30134e-17)
(-5.0759e-06 0.000548865 1.9701e-16)
(1.84065e-08 0.000546428 -1.46721e-20)
(-0.000384259 0.000146841 -5.14134e-17)
(0.000222621 2.68237e-05 -2.18995e-16)
(-4.89339e-06 0.000550111 -2.00429e-16)
(-1.61395e-06 0.000547888 2.02108e-16)
(7.23281e-07 0.000546552 2.02985e-16)
(-1.22277e-07 0.000548437 -2.00159e-16)
(0.000456676 0.000232421 -1.92051e-16)
(-3.31013e-06 0.000547032 -2.01112e-16)
(-0.000386988 0.000146232 0)
(-0.000385944 0.000150297 0)
(0.000372209 0.000148873 0)
(-8.51486e-07 0.000546371 -2.03574e-16)
(-0.000379763 0.000157522 2.48146e-16)
(0.000372885 0.000137954 -1.57153e-16)
(-0.000365394 0.00014856 2.71357e-16)
(-0.000383774 0.000149652 -1.96919e-16)
(-0.000384308 0.000148645 -1.01264e-16)
(-0.000414623 0.000195097 -1.00456e-16)
(-1.70301e-06 0.000546597 -4.058e-16)
(1.48832e-06 0.00054647 8.46305e-20)
(-0.000382509 0.000159914 -5.80055e-17)
(-0.000384506 0.000153622 4.59965e-17)
(-0.000384465 0.000149127 -5.05274e-17)
(2.2206e-06 0.000547144 -2.0262e-16)
(4.23432e-07 0.000546462 4.10233e-16)
(-2.7155e-06 0.000547041 -2.02965e-16)
(4.57734e-07 0.000547029 -7.95381e-19)
(-0.000383872 0.000151629 4.91301e-17)
(-1.94038e-06 0.000546643 0)
(2.62947e-06 0.00054686 -2.03787e-16)
(1.73535e-06 0.000546273 2.02754e-16)
(2.28053e-06 0.000547182 3.50535e-20)
(-0.00038414 0.000146823 1.02071e-16)
(-3.05374e-06 0.000550052 0)
(-0.00038528 0.000146514 -2.00619e-16)
(-0.000400444 0.000143813 0)
(0.000376808 0.000143869 -2.22462e-16)
(-2.53822e-07 0.00054677 -1.57907e-18)
(0.000357135 0.000146434 1.97905e-16)
(3.47859e-07 0.000546716 -1.45342e-20)
(-3.29795e-05 0.000561186 0)
(-2.23597e-05 0.000554182 -1.99275e-16)
(-0.00038577 0.000146946 0)
(-0.000388354 0.000146535 -9.86574e-17)
(3.78809e-06 0.000546412 0)
(-0.000382418 0.000147955 -2.14076e-16)
(-0.000384109 0.000150219 -1.06356e-16)
(0.000374819 0.000149744 2.13744e-16)
(2.12003e-07 0.000546684 -2.03087e-16)
(-3.17106e-06 0.000547055 -2.03163e-16)
(-0.000386019 0.000151223 5.55544e-17)
(-6.29128e-07 0.000546741 -2.0031e-16)
(-0.000380636 0.000144725 3.1159e-16)
(-2.61195e-06 0.000546532 -2.02294e-16)
(7.70457e-07 0.000546849 -1.45582e-20)
(-0.000389894 0.000175101 -2.36564e-16)
(-3.49242e-06 0.000546969 2.00633e-16)
(0.000377416 0.000142414 0)
(-0.000383576 0.00015013 -5.02518e-17)
(-1.74952e-07 0.000546659 3.18897e-18)
(-0.000386797 0.000144834 1.00776e-16)
(-9.70072e-08 0.000546461 -1.60076e-18)
(-0.000383812 0.000147297 5.04612e-17)
(-0.000367213 0.000133395 0)
(1.45959e-06 0.000546917 -1.46325e-20)
(-0.00041837 0.000176757 3.00921e-16)
(3.40603e-07 0.000547159 2.04474e-16)
(0.000355249 0.000174021 -5.87782e-17)
(-0.000379376 0.000162379 1.95208e-16)
(-1.11706e-07 0.000546794 2.04619e-16)
(0.000279223 0.00011112 2.15029e-16)
(-7.09708e-07 0.000546848 2.03324e-16)
(4.58383e-07 0.00054673 3.17276e-18)
(0.000320022 0.000117329 2.27236e-16)
(0.000342139 0.000122041 -2.12543e-16)
(0.000388832 0.000151748 0)
(-0.000421969 0.000172224 0)
(-3.20613e-06 0.000546914 -1.59111e-18)
(0.000355565 0.000137012 2.79975e-16)
(-3.13778e-06 0.000546554 -1.57975e-18)
(-0.000384555 0.000149067 -9.82441e-17)
(0.000354878 0.000115009 0)
(2.89965e-06 0.000546718 -4.05562e-16)
(4.91998e-07 0.000546708 -4.08078e-16)
(-0.000382663 0.000154431 0)
(-0.00038465 0.000146749 0)
(3.52187e-07 0.00054714 -4.05528e-16)
(-1.09168e-05 0.000552327 0)
(-0.000380304 0.000160762 -1.95483e-16)
(-7.31239e-06 0.000549837 -4.00523e-16)
(-0.000349942 0.000129988 0)
(0.000399676 0.00011745 5.24858e-17)
(1.28917e-08 0.000546115 -1.60743e-18)
(1.27e-06 0.000547293 2.04315e-16)
(0.000299106 0.000186687 -7.03687e-18)
(1.53615e-07 0.000546686 -2.04797e-16)
(-0.00038686 0.000142912 1.5744e-16)
(-0.00042365 0.000193299 1.38986e-16)
(-3.44913e-06 0.000546821 2.01872e-16)
(-0.000386595 0.000144328 1.4575e-16)
(-5.99387e-07 0.000546948 2.04818e-16)
(-3.243e-06 0.000546624 -2.0261e-16)
(-3.63034e-06 0.000546749 -2.01912e-16)
(-0.000381242 0.000155076 0)
(-0.000385546 0.000144908 -4.9869e-17)
(-3.83714e-07 0.000546607 -7.988e-19)
(3.31386e-06 0.000546859 0)
(-0.0003807 0.000155382 1.98692e-16)
(-0.000384349 0.00014506 0)
(4.95546e-07 0.000546781 -2.03406e-16)
(-2.69863e-06 0.000548442 3.16238e-18)
(0.000374249 0.000145265 -2.14739e-16)
(5.04302e-07 0.00054674 -4.10861e-16)
(-0.000412704 0.000157109 3.41583e-16)
(-2.07723e-07 0.000546748 0)
(-1.51754e-07 0.000546807 2.02765e-16)
(-1.13731e-07 0.000546805 0)
(7.26261e-09 0.000546688 2.02825e-16)
(4.26357e-07 0.000546687 -2.02312e-16)
(0.000309454 0.000125166 1.21379e-16)
(1.41178e-07 0.000546572 2.02454e-16)
(2.49779e-07 0.00054796 -1.46607e-20)
(4.26463e-10 0.000546738 2.04807e-16)
(-3.77272e-06 0.000546838 4.04656e-16)
(-0.000385319 0.000147395 0)
(-0.000385406 0.000147916 -5.25285e-17)
(-3.2983e-06 0.000546696 0)
(-7.75355e-08 0.00054677 0)
(-4.09284e-07 0.000546522 -2.06617e-16)
(3.31188e-06 0.000547011 2.03103e-16)
(2.76165e-06 0.000546982 2.03868e-16)
(-0.000384221 0.000150508 2.57701e-16)
(2.95803e-06 0.000546759 2.033e-16)
(-2.14777e-07 0.000546921 -2.04798e-16)
(-5.1513e-07 0.000546792 0)
(-1.4697e-07 0.000546741 -1.47056e-20)
(-0.000385137 0.00014825 1.00378e-16)
(3.28124e-06 0.000546825 0)
(3.12099e-06 0.000546608 2.03441e-16)
(-1.32317e-06 0.000547795 -2.05262e-16)
(-0.000388001 0.000144611 0)
(-7.59781e-10 0.000546753 0)
(0.000377695 0.000145427 -2.13235e-16)
(-5.906e-08 0.000547133 1.59883e-18)
(-5.05611e-08 0.000547279 -3.98548e-19)
(-2.64198e-06 0.000546292 -7.92086e-19)
(-3.67004e-06 0.000546645 1.46006e-20)
(-2.93496e-06 0.000546378 7.92734e-19)
(-0.000392635 0.000179109 -1.24099e-16)
(-3.51737e-06 0.000546335 2.03615e-16)
(1.84196e-06 0.000546904 0)
(-3.45138e-06 0.000546421 2.02168e-16)
(-3.50348e-06 0.00054654 -2.02513e-16)
(-3.70485e-06 0.000546776 -2.03454e-16)
(-0.000464582 0.000380592 -3.08472e-16)
(-8.78994e-05 0.000109407 -3.84301e-16)
(3.39359e-06 0.000546872 -2.03719e-16)
(-3.33261e-07 0.000546677 -2.03077e-16)
(3.68564e-08 0.000546795 -2.03031e-16)
(3.05539e-06 0.000546605 2.03503e-16)
(-0.00038715 0.000146047 -2.02477e-16)
(-3.91622e-06 0.000546566 2.02145e-16)
(-3.48305e-07 0.000546826 -2.02696e-16)
(-2.53098e-06 0.000547892 -4.03177e-16)
(-2.73229e-07 0.000546667 -1.60334e-18)
(3.62352e-06 0.000546672 2.02733e-16)
(0.000374823 0.000143552 2.13269e-16)
(-1.14198e-06 0.000547022 -2.02734e-16)
(2.11502e-07 0.000546749 -1.45896e-20)
(0.000399507 0.000164424 -2.63011e-16)
(-1.1767e-07 0.000546721 0)
(-2.24822e-07 0.000546742 0)
(-3.90758e-06 0.000546661 -4.06263e-16)
(-0.000385304 0.000147758 1.00719e-16)
(7.59144e-08 0.000546415 -4.00503e-19)
(-4.53335e-06 0.000546845 2.12283e-19)
(0.000376664 0.000143124 1.41757e-17)
(-4.16004e-06 0.000547131 2.0308e-16)
(4.12459e-06 0.000546859 2.03053e-16)
(3.78731e-06 0.000546744 -2.02906e-16)
(9.40838e-07 0.000546728 -2.03476e-16)
(-4.43214e-06 0.00054689 1.45942e-20)
(-0.000399084 0.000139719 -2.15479e-16)
(-0.000320633 0.000119991 2.65483e-16)
(-4.45836e-07 0.00054618 -1.46734e-20)
(-2.68822e-07 0.000546664 -2.02595e-16)
(-0.00038206 0.000155814 5.11247e-17)
(3.47368e-07 0.000546819 -1.4706e-20)
(-4.08334e-06 0.000546464 8.05168e-19)
(4.10024e-06 0.00054666 -4.06052e-16)
(1.82729e-06 0.000546127 2.03838e-16)
(3.47161e-06 0.000546522 -2.03836e-16)
(3.42079e-06 0.000546636 -2.03831e-16)
(4.09529e-06 0.00054673 2.0313e-16)
(3.39678e-06 0.000546574 1.98684e-19)
(4.06838e-06 0.000546754 0)
(0.000377783 0.000142855 0)
(-3.30136e-06 0.000546807 2.04493e-16)
(-2.69309e-07 0.000547382 0)
(7.3801e-07 0.000547183 2.03742e-16)
(4.07476e-06 0.000546726 0)
(4.0551e-06 0.000546786 2.03199e-16)
(4.112e-06 0.000546682 -9.91937e-20)
(4.56194e-07 0.000547137 1.99369e-16)
(3.6977e-06 0.000546979 0)
(-9.7722e-07 0.000547293 0)
(-3.41167e-06 0.000547228 -2.04714e-16)
(-0.0003842 0.000148863 -2.46414e-21)
(3.60654e-06 0.000546723 0)
(-8.1569e-06 0.000556074 0)
(3.55124e-06 0.000546735 0)
(-0.000376433 0.000143439 1.57173e-16)
(2.97431e-07 0.000546712 -2.02847e-16)
(-2.55433e-06 0.000547883 2.04686e-16)
(3.71571e-06 0.000547072 -9.94073e-20)
(-0.000374848 0.000158176 5.56777e-17)
(-0.00038243 0.000155059 -5.0833e-17)
(3.2569e-06 0.000546948 -2.03825e-16)
(-9.2853e-07 0.000545896 0)
(-1.39217e-07 0.000547752 -2.03906e-16)
(3.28891e-06 0.000546999 1.46473e-20)
(4.10577e-06 0.00054664 -2.03665e-16)
(-5.54361e-07 0.000545653 4.05051e-16)
(0.000365707 0.00011701 -3.65602e-16)
(0.000377663 0.000146996 -4.30928e-16)
(-5.4204e-07 0.000546932 4.07261e-16)
(0.000372157 0.000146231 0)
(3.21531e-06 0.000547003 0)
(4.16325e-06 0.000546582 -3.97007e-19)
(-0.000395059 0.000156719 -1.84026e-16)
(-0.000383467 0.000157338 1.05908e-16)
(2.59762e-07 0.000546514 -1.00206e-19)
(3.24051e-06 0.000547055 2.03876e-16)
(3.59564e-07 0.000546746 -2.03135e-16)
(-0.000350328 0.000335661 1.02779e-16)
(3.07014e-06 0.000546986 7.96867e-19)
(-3.98762e-06 0.000547025 2.03307e-16)
(-3.2793e-07 0.000547532 2.04077e-16)
(-0.000438169 0.00022443 -2.01505e-16)
(3.17066e-06 0.000547173 0)
(-2.25869e-07 0.000546801 4.01584e-19)
(-8.20896e-07 0.000547352 -2.0311e-16)
(-0.000385521 0.000146169 0)
(0.000396882 0.000111602 3.85793e-16)
(-0.000380281 0.000159227 5.3669e-17)
(3.03173e-06 0.000547045 -7.96999e-19)
(4.32968e-07 0.000546923 -2.03835e-16)
(-3.54679e-06 0.000546424 -2.03662e-16)
(-0.000383635 0.000154205 3.04102e-16)
(3.05203e-06 0.000547232 -2.04095e-16)
(-4.69191e-06 0.000546623 7.93041e-19)
(2.45414e-07 0.000546502 2.00596e-19)
(3.79761e-06 0.000546614 0)
(-2.0301e-07 0.000547602 0)
(3.83781e-06 0.000546566 0)
(4.00213e-07 0.000546973 0)
(-0.000384329 0.000146364 -5.05817e-17)
(-4.17856e-06 0.000546416 0)
(-2.72672e-07 0.000546769 0)
(0.000405448 0.000191269 1.57514e-16)
(3.04237e-07 0.00054695 0)
(-2.23519e-05 0.000568913 0)
(-1.11215e-07 0.00054763 4.0802e-16)
(2.0247e-07 0.000546504 0)
(0.00037483 0.000137048 -4.81155e-17)
(0.000376603 0.000146281 0)