/*--------------------------------*- C++ -*----------------------------------*\
  =========                 |
  \\      /  F ield         | OpenFOAM: The Open Source CFD Toolbox
   \\    /   O peration     | Website:  https://openfoam.org
    \\  /    A nd           | Version:  12
     \\/     M anipulation  |
\*---------------------------------------------------------------------------*/
FoamFile
{
    format      ascii;
    class       surfaceScalarField;
    location    "0.09";
    object      phi;
}
// * * * * * * * * * * * * * * * * * * * * * * * * * * * * * * * * * * * * * //

dimensions      [0 3 -1 0 0 0 0];

internalField   nonuniform List<scalar> 
6438
(
-1.47331e-08
1.82613e-06
-1.81139e-06
-1.62121e-08
2.12129e-06
-2.10508e-06
-1.98736e-06
-3.3481e-07
2.32217e-06
1.88572e-06
-2.0685e-06
1.82779e-07
2.90182e-06
-2.26579e-06
-6.36026e-07
6.64738e-07
2.23708e-06
-2.25418e-06
2.66815e-07
-1.96036e-06
1.94415e-06
2.11515e-06
-2.52776e-06
4.12614e-07
1.96901e-06
-2.30684e-06
3.3783e-07
-1.9055e-06
2.31271e-06
-4.07212e-07
4.58626e-07
-2.09087e-06
1.63225e-06
-2.35159e-06
4.46089e-07
1.80958e-06
8.31559e-07
-2.64113e-06
1.69943e-06
-1.71416e-06
-9.53221e-08
1.99071e-06
-1.89538e-06
-2.50909e-06
2.43197e-06
7.71265e-08
-1.90051e-06
2.30439e-06
-4.03886e-07
-2.34827e-06
4.47763e-07
7.46329e-07
1.5816e-06
-2.32792e-06
-5.44908e-07
-3.56887e-07
9.01795e-07
-1.16707e-07
2.08722e-06
-1.97051e-06
-1.93316e-06
-3.14003e-07
2.24717e-06
-2.3636e-06
1.03878e-06
1.32481e-06
-2.05655e-06
1.93984e-06
-1.82645e-06
2.22134e-06
-3.94886e-07
-2.22573e-06
2.92567e-07
2.11603e-06
-1.65741e-06
-1.92095e-06
-3.5579e-07
2.27674e-06
-2.31887e-06
4.92417e-07
1.78476e-06
-2.23452e-06
4.49757e-07
9.97732e-09
-2.17929e-06
2.16932e-06
2.1312e-06
-2.14192e-06
1.07168e-08
-2.11148e-06
3.56628e-07
1.75486e-06
-2.85537e-06
4.61275e-07
2.39409e-06
2.00612e-06
-1.99614e-06
2.02215e-06
-1.36428e-07
1.31312e-06
1.83744e-06
-3.15056e-06
-6.43227e-07
2.4528e-06
-1.8828e-06
2.06845e-06
-1.85649e-07
-2.18365e-06
2.16286e-06
2.07917e-08
-9.09408e-07
1.65574e-06
1.95223e-06
1.67796e-08
-2.34588e-06
2.29857e-06
4.73071e-08
2.10623e-06
-3.21476e-07
-1.5695e-06
1.47418e-06
-2.72568e-06
4.5989e-07
2.06965e-06
2.00247e-07
-2.26989e-06
-1.61472e-06
-4.96766e-07
-2.9395e-07
-1.93821e-06
2.19975e-06
-2.61545e-07
-1.45047e-06
2.08783e-06
-6.37356e-07
2.09258e-06
-2.09258e-06
6.55765e-07
1.58771e-06
2.09018e-07
-1.79672e-06
9.30939e-07
4.50159e-07
-1.3811e-06
1.77338e-06
3.66548e-07
-2.13993e-06
1.71112e-06
-6.7234e-07
-9.92305e-07
-1.73338e-06
-2.01726e-08
1.8442e-06
-1.82402e-06
-2.27606e-06
2.27606e-06
-2.35554e-06
2.37816e-06
-2.26203e-08
9.42742e-08
1.75467e-06
-1.84894e-06
6.69651e-09
-2.14872e-06
2.14202e-06
1.99346e-06
-1.98676e-06
-2.17304e-06
2.52085e-07
-2.17902e-06
-1.66863e-07
-1.87213e-06
2.05619e-06
-1.84063e-07
2.07268e-07
1.7938e-06
-2.00106e-06
-2.20267e-06
2.11863e-06
8.4036e-08
2.14786e-06
-2.14786e-06
1.99805e-06
1.17097e-07
-1.31185e-06
-9.94984e-07
1.8691e-06
3.95354e-07
-2.26446e-06
-1.83525e-06
-3.48398e-07
1.6295e-06
1.26103e-06
-2.89052e-06
-2.52561e-06
1.6162e-06
-1.6141e-06
-9.11512e-07
2.21661e-06
-3.47511e-07
1.32491e-06
-3.93974e-07
1.80118e-06
2.02806e-07
-2.00399e-06
-2.21996e-06
-1.35585e-07
-3.17489e-07
-5.40048e-07
-1.73601e-06
2.40613e-06
-2.40613e-06
-1.59337e-06
-6.09296e-07
-1.45238e-07
-2.71013e-06
-2.07579e-06
2.06817e-06
7.61995e-09
7.47371e-08
-2.10503e-06
2.03029e-06
-2.3143e-07
2.03261e-06
2.07869e-06
5.25145e-08
-2.17145e-06
-3.37638e-07
-2.19138e-06
2.24561e-06
-5.42272e-08
2.29242e-06
-1.28221e-06
-1.01021e-06
2.05455e-06
-1.97981e-06
4.28429e-08
2.30735e-06
-1.17404e-06
-1.13331e-06
1.31051e-06
9.81903e-07
2.11456e-06
-2.11456e-06
-1.62238e-06
2.32556e-06
-7.03184e-07
-2.03744e-06
9.92294e-08
-2.79294e-07
-1.64916e-06
1.92845e-06
-1.91041e-06
7.51576e-08
-2.04659e-06
4.24208e-07
1.76382e-06
3.85866e-07
-2.14969e-06
-1.28775e-07
1.8926e-06
-1.84394e-06
2.13006e-06
-2.86116e-07
-1.95698e-06
7.41816e-08
1.35674e-06
9.50609e-07
2.04145e-06
-4.09199e-07
8.77511e-08
2.00483e-06
-1.76158e-06
-1.48834e-07
1.84033e-06
3.93181e-07
-2.23351e-06
-1.01822e-06
-8.78737e-07
1.89695e-06
1.34066e-06
-1.72128e-07
-1.16853e-06
-2.17929e-06
4.4393e-07
2.17974e-06
-2.62367e-06
-1.01295e-06
4.68046e-07
2.17798e-06
4.33642e-08
2.36693e-06
-1.22499e-06
-1.14194e-06
7.94517e-07
1.57242e-06
2.19904e-06
-3.58708e-07
2.68979e-06
-1.37667e-06
-1.99234e-06
7.13701e-09
1.9852e-06
-2.85122e-06
2.88496e-07
2.56273e-06
-3.32777e-08
-1.98026e-06
2.01354e-06
2.17614e-06
1.22431e-07
-1.68006e-06
1.65988e-06
-2.00388e-06
2.04382e-06
-3.99375e-08
2.02975e-06
-2.06303e-06
2.09493e-06
-2.09493e-06
2.06041e-06
6.08799e-08
2.06508e-06
-4.77376e-07
2.03691e-06
-1.94264e-06
-1.79452e-06
1.51523e-06
1.89531e-08
1.97824e-06
-1.99719e-06
2.33202e-06
-1.6317e-06
-7.00325e-07
-2.14872e-06
-3.14348e-08
2.44597e-08
-1.98482e-06
-1.98662e-06
1.14492e-07
2.2296e-08
1.98382e-06
1.91988e-06
-1.71262e-06
-1.97965e-06
1.35713e-07
2.00761e-06
-5.53777e-08
-7.2665e-08
1.74832e-06
-1.67566e-06
1.3792e-06
9.52818e-07
-2.058e-06
4.43727e-07
1.61427e-06
2.09774e-06
-9.91557e-09
-2.77551e-06
2.50587e-07
2.52492e-06
-2.85112e-08
-1.96995e-06
1.99846e-06
1.30887e-06
3.17893e-08
1.2608e-07
1.97166e-06
1.9511e-06
1.64929e-07
2.01815e-06
-2.04666e-06
-2.10212e-06
-6.93372e-08
2.14635e-06
-2.30887e-06
1.62519e-07
-1.91673e-06
-7.5601e-08
-2.33378e-06
1.01183e-06
1.32195e-06
-1.0426e-09
2.01674e-06
7.04789e-08
-1.89995e-06
2.2093e-06
-3.09352e-07
-2.0887e-06
1.80187e-06
2.86823e-07
-2.83295e-07
7.31301e-07
-4.48005e-07
-6.55989e-07
-1.66288e-06
-2.10503e-06
-1.68458e-08
2.01031e-06
6.19528e-07
1.70603e-06
-3.4162e-08
-2.04652e-06
-1.0023e-08
-4.38159e-08
-2.23655e-06
1.88887e-06
3.47683e-07
-1.30972e-07
1.66911e-06
3.28941e-07
3.27024e-06
-1.4328e-06
-6.90782e-07
-1.65749e-06
2.05045e-06
2.82388e-08
-1.75771e-06
7.39498e-07
-7.93068e-07
-1.24702e-06
2.04009e-06
-7.05833e-07
-1.64576e-06
-1.14548e-06
2.77498e-06
-2.11659e-06
7.00695e-08
-1.99801e-06
2.00563e-06
-7.61603e-09
-1.6472e-06
1.57454e-06
-2.42621e-08
-1.95803e-06
1.98229e-06
-2.15381e-06
3.7219e-08
1.79472e-06
-2.1353e-06
3.40581e-07
2.00055e-06
-2.02481e-06
1.78655e-06
-6.75526e-07
-1.11103e-06
-2.70431e-06
9.60738e-07
1.74358e-06
1.83148e-06
1.76126e-07
1.51171e-06
9.20254e-07
4.41358e-07
1.96477e-06
-5.27135e-07
-1.87899e-06
-2.18127e-06
2.16141e-06
1.9868e-08
-2.1751e-06
-6.1703e-09
-2.16459e-06
-1.05123e-08
7.59352e-09
5.63857e-07
-3.14901e-06
2.58515e-06
-2.33525e-06
2.77918e-06
1.84435e-06
-1.8254e-06
1.97215e-06
8.23997e-08
1.60869e-07
1.62568e-06
-1.98026e-06
-1.7952e-06
1.78701e-06
2.21966e-07
-2.00897e-06
-1.00976e-08
-4.28074e-07
3.14183e-06
-2.71376e-06
2.97955e-06
-2.14799e-06
-9.05286e-07
1.35545e-06
-5.74902e-07
-1.75888e-06
-1.56032e-06
-1.14399e-06
-1.97903e-06
-1.2309e-07
-1.99412e-06
1.99379e-06
3.31578e-10
-3.13645e-07
1.87008e-06
-1.55644e-06
-2.14284e-06
2.15771e-06
-1.48696e-08
-2.12025e-06
-2.25923e-08
-2.72315e-06
1.71744e-07
2.5514e-06
-1.90055e-06
-1.23326e-07
2.02388e-06
2.13561e-06
2.21017e-08
-3.79242e-07
-2.33178e-06
8.53475e-07
1.4783e-06
1.28614e-08
-1.234e-06
-1.09777e-06
-2.89849e-08
-2.19756e-08
-1.9462e-06
1.96817e-06
-2.00019e-06
9.96353e-08
1.80769e-06
2.42763e-07
2.08292e-06
-1.99517e-06
1.98082e-06
-2.00279e-06
1.97313e-06
5.66129e-08
9.70897e-07
2.00865e-06
2.04808e-06
-3.78968e-07
-1.61804e-07
-2.68942e-06
-1.16028e-07
1.62576e-06
-1.50973e-06
-2.1102e-06
-1.00413e-08
-2.10982e-06
-3.89114e-10
2.12618e-06
-2.11075e-06
-1.54318e-08
2.10376e-06
2.24197e-08
-1.96995e-06
4.86445e-07
-6.67166e-07
1.80721e-07
-2.38285e-06
1.39675e-06
9.86103e-07
1.06489e-06
-2.13574e-06
1.07085e-06
-1.86442e-06
-1.73015e-07
-1.9874e-06
1.97753e-06
9.87835e-09
-2.06568e-06
1.99199e-06
7.36877e-08
-1.65028e-07
2.11415e-06
-1.94912e-06
-2.05099e-06
5.08027e-08
-2.27794e-06
2.84179e-06
-2.09703e-07
-1.84829e-06
-2.14146e-06
1.97644e-06
-1.67782e-06
-1.53745e-07
1.83156e-06
-1.56703e-06
2.09051e-06
1.32579e-08
-1.42788e-06
-3.8287e-07
4.24579e-07
-4.17091e-08
-1.93093e-08
7.73842e-08
-2.71737e-06
2.63998e-06
-1.51842e-06
-7.35755e-07
-2.11805e-06
2.07596e-06
4.20975e-08
-2.08571e-06
-3.2341e-08
-7.4879e-07
4.65495e-07
1.96944e-06
4.87095e-08
2.09858e-06
-3.43916e-07
2.08446e-06
-2.08276e-06
-1.69775e-09
-5.45166e-09
-1.93104e-06
1.93649e-06
2.18369e-06
-1.56417e-06
-2.62907e-08
2.15856e-06
1.22323e-06
-3.38179e-06
2.13798e-06
-2.13798e-06
3.33486e-07
1.94258e-06
-7.54749e-07
-1.33783e-06
-1.706e-06
2.05656e-06
-3.50564e-07
-2.24649e-07
-1.84103e-06
1.97079e-06
-1.97625e-06
-1.88622e-06
3.03413e-08
1.85587e-06
3.62526e-07
-1.91343e-06
1.5509e-06
-1.9814e-06
1.96036e-06
2.10374e-08
1.26758e-06
9.16115e-07
-6.16405e-08
-3.2123e-07
-1.19314e-06
-1.18971e-06
-4.61393e-07
-2.11558e-06
2.15625e-07
-1.95803e-06
1.77427e-06
3.72085e-07
-1.64414e-06
-1.84977e-06
1.71959e-07
-1.88769e-06
1.09462e-06
2.14201e-06
-1.74097e-06
-4.01039e-07
3.64976e-07
1.71794e-06
-1.50993e-06
-7.15804e-07
-2.09355e-06
2.09355e-06
2.09615e-06
-2.01638e-06
-7.97767e-08
1.19753e-07
-1.98417e-06
-1.67681e-06
1.8958e-06
-2.18993e-07
-6.62799e-07
3.05912e-07
1.95206e-06
-1.96171e-06
9.65356e-09
2.05404e-06
2.19187e-08
2.0731e-06
2.30484e-08
3.12945e-06
-1.99715e-06
-5.38411e-08
-1.75249e-06
1.43884e-06
1.96626e-06
3.42901e-08
2.06735e-06
-2.05651e-06
-1.08424e-08
-1.83589e-08
-2.87262e-08
2.16964e-07
-1.77307e-06
1.55611e-06
-6.11057e-08
-2.7144e-06
6.49386e-07
1.44115e-07
-1.82092e-06
-1.97635e-06
1.94601e-06
3.03416e-08
1.97084e-06
-1.76126e-07
-9.18174e-07
-1.22374e-06
-2.76332e-06
2.04494e-07
-1.10978e-06
-3.28569e-07
9.5838e-09
2.03029e-06
-1.80832e-06
-1.9462e-06
-1.94909e-06
5.10106e-08
1.89808e-06
2.7506e-06
3.91233e-07
1.58675e-06
7.91418e-07
1.91961e-06
-8.54717e-07
2.00259e-06
-1.13716e-07
4.60435e-06
-3.38112e-06
-3.14901e-06
-1.0103e-06
-1.0784e-06
-2.58627e-08
2.1372e-06
-2.0025e-06
-1.34696e-07
2.02713e-06
4.59685e-08
2.34483e-07
-1.94048e-06
-1.43958e-06
1.65655e-06
1.9634e-06
1.74169e-08
1.53655e-06
6.80059e-07
2.06027e-06
7.69316e-08
2.05902e-06
-2.0296e-06
-2.94208e-08
-9.29559e-07
-1.30496e-06
-9.29733e-08
1.89484e-06
3.50721e-08
-2.18293e-06
1.70706e-06
-1.34453e-06
-2.93757e-08
4.26439e-08
1.66785e-06
-1.80919e-06
1.4134e-07
3.05897e-07
1.75066e-06
2.79147e-06
-2.71408e-06
9.72093e-07
1.22766e-06
-1.9707e-06
1.94847e-06
2.2236e-08
-4.50916e-08
-1.14763e-06
6.30659e-07
5.16969e-07
-2.09837e-08
2.14009e-06
-2.14009e-06
2.4252e-06
-1.40813e-06
-1.01707e-06
-1.76725e-06
-3.01248e-07
1.49205e-06
7.06987e-07
2.04917e-06
1.10941e-08
-1.93104e-06
1.91578e-06
1.24042e-08
-1.92818e-06
1.5671e-06
2.18293e-06
-2.16932e-06
5.47583e-08
2.54818e-06
-2.25969e-06
1.97112e-06
-2.09462e-06
1.96026e-06
-4.44787e-08
1.76874e-06
-1.9155e-06
1.90578e-06
9.71865e-09
8.79865e-08
1.53812e-06
-1.62611e-06
-1.74069e-06
1.43872e-06
-1.29853e-07
1.8189e-06
2.4955e-07
-1.79648e-08
-1.68596e-06
-2.93697e-07
-2.52828e-06
1.59872e-06
4.60428e-09
-1.92134e-06
-2.04448e-06
-9.69873e-08
2.73574e-06
-1.47471e-06
1.95732e-08
-3.54808e-07
2.17604e-06
-1.82123e-06
-9.29228e-07
-2.18401e-07
1.90744e-06
-1.92747e-06
2.00303e-08
-1.97112e-06
1.95797e-06
8.49406e-07
1.21084e-06
-2.06025e-06
2.04686e-06
-3.79005e-07
1.68229e-07
1.82248e-06
2.01091e-06
1.98393e-07
2.19237e-07
2.67208e-07
-2.14202e-06
4.70889e-08
-1.69839e-06
1.93287e-06
-9.84703e-07
1.1892e-06
1.81549e-07
-1.7846e-06
1.60305e-06
-1.51401e-08
3.50027e-08
-1.77911e-06
-2.02713e-06
1.98949e-06
3.76409e-08
-1.94212e-06
2.01153e-07
1.27055e-06
1.15466e-06
-1.09265e-06
2.2394e-06
-1.14675e-06
2.24755e-06
-2.09788e-06
-1.49667e-07
5.72101e-08
1.38151e-06
-1.92862e-06
-2.04696e-08
1.95747e-06
2.79e-09
9.65257e-07
-3.34598e-07
2.49143e-06
-2.24085e-06
1.77864e-06
2.77545e-07
1.11647e-07
-1.98713e-06
3.01176e-07
2.97246e-08
-1.72812e-06
2.21824e-06
-1.79403e-06
1.80805e-06
-1.09893e-07
-1.72174e-06
1.83163e-06
-1.94841e-06
2.0298e-06
-2.41709e-08
-2.95147e-06
2.37717e-07
-1.29482e-08
1.91122e-06
3.72465e-08
-1.80181e-06
-1.98098e-06
1.97308e-06
7.9063e-09
2.37482e-06
-1.38181e-06
-9.93016e-07
-1.66073e-06
-1.49841e-07
1.81057e-06
-4.24394e-09
-1.95468e-06
4.21703e-08
-2.12753e-07
2.09152e-06
-1.87877e-06
-1.91724e-06
1.9269e-06
-2.78425e-06
-4.05537e-07
-2.69174e-06
2.62396e-06
6.77834e-08
1.53359e-06
7.79122e-07
1.79555e-06
1.62078e-07
-1.95763e-06
1.90956e-06
-7.80803e-08
1.53706e-06
7.67337e-07
-1.36453e-06
4.35307e-07
-1.93234e-06
1.6766e-06
-1.90803e-06
-2.59266e-06
2.58332e-06
9.33512e-09
2.33874e-06
-1.87747e-06
1.91153e-06
-5.75401e-09
1.17919e-07
-1.78291e-06
1.66499e-06
-2.8825e-08
-2.56383e-06
2.31587e-06
-2.31587e-06
-1.05565e-06
1.98712e-06
-9.3147e-07
-1.91205e-06
1.91205e-06
1.95639e-06
-1.72906e-06
-2.27328e-07
1.81314e-06
4.32468e-07
2.03738e-06
-1.6724e-06
2.01639e-06
-2.26083e-08
-1.57539e-06
-2.52774e-07
1.82816e-06
-2.56127e-06
2.57014e-06
-8.87096e-09
2.36812e-06
-1.42607e-06
-9.42044e-07
3.45029e-07
1.69235e-06
-2.58808e-06
2.57504e-06
1.3041e-08
-7.85988e-10
-1.90725e-08
2.55386e-06
-2.53479e-06
-2.5785e-06
2.5785e-06
-3.06801e-08
1.93812e-06
2.76818e-06
-2.57977e-06
-1.88414e-07
-2.58978e-06
2.5707e-06
2.58728e-06
-2.57421e-06
-1.3068e-08
-1.88484e-06
-4.26291e-08
2.20577e-06
-2.97066e-08
2.57036e-06
-2.54066e-06
2.57113e-06
-2.57601e-06
4.87962e-09
-1.94473e-06
2.55763e-06
-3.76514e-09
-1.9789e-06
1.96141e-06
1.74971e-08
-2.55717e-06
2.56655e-06
-9.37147e-09
1.95886e-06
-1.90785e-06
-2.58292e-06
2.55322e-06
1.98187e-06
-6.31192e-07
9.42777e-07
1.23326e-06
-1.43043e-06
-1.09785e-06
-2.57398e-06
2.57398e-06
-2.58579e-06
-3.98819e-09
2.39359e-06
-4.39654e-07
-1.95394e-06
-1.68427e-06
1.14422e-06
6.45505e-08
2.5618e-06
-2.56982e-06
8.01541e-09
1.88545e-06
-1.88481e-06
-6.44065e-10
2.64162e-06
-2.57287e-06
-6.87467e-08
2.54826e-06
1.35375e-08
2.54361e-06
2.67552e-08
-5.38564e-09
-1.90667e-06
-2.35489e-06
1.29664e-06
1.05824e-06
-1.90395e-06
1.91636e-06
2.55647e-06
-8.20919e-09
2.68063e-07
1.73452e-06
1.37492e-06
-5.25512e-07
-2.57928e-06
-3.64442e-09
2.10312e-06
1.24713e-06
-2.12587e-06
-3.25196e-07
-2.62628e-06
1.92097e-06
-1.93302e-06
1.20528e-08
-8.92189e-08
-2.60252e-06
1.99999e-06
-2.24647e-08
2.22173e-06
-1.51896e-06
-7.02769e-07
-1.92437e-06
2.56044e-06
-2.56044e-06
1.83445e-06
2.59475e-08
-1.8604e-06
1.97341e-06
-2.56585e-06
2.56245e-06
3.40604e-09
2.54745e-06
-2.57224e-06
2.47846e-08
1.61681e-06
-2.14394e-06
-6.94354e-09
-2.54776e-06
2.5547e-06
2.54186e-06
-2.5488e-06
-8.4328e-08
2.70829e-06
-2.0311e-06
2.20284e-06
-2.30662e-06
1.60079e-06
-4.05135e-08
2.62384e-06
2.20233e-07
1.13521e-06
2.47156e-08
2.36887e-06
-7.0235e-09
2.04945e-06
-2.04242e-06
-1.76591e-08
-2.57192e-06
-1.61563e-08
2.11352e-06
-2.12656e-07
-1.90086e-06
-2.55486e-06
2.55486e-06
1.49695e-06
-1.28793e-06
-2.57604e-06
2.56922e-06
6.82107e-09
1.96802e-06
-1.96802e-06
1.91446e-06
-2.90117e-08
2.55836e-06
-2.56248e-06
4.12126e-09
-2.47028e-06
6.75089e-07
1.52803e-09
-1.90066e-06
1.89914e-06
2.06103e-06
-1.72142e-08
2.56353e-06
2.3749e-08
1.5555e-06
2.65073e-07
-1.82057e-06
2.57154e-06
-1.39138e-08
1.99987e-06
-1.99987e-06
2.55524e-06
-2.54626e-06
-8.98665e-09
-1.95528e-06
1.93998e-06
1.53006e-08
2.57466e-06
-2.5669e-06
-7.75934e-09
-2.55917e-06
2.55917e-06
3.83457e-07
1.79318e-06
6.06688e-08
-1.85385e-06
-2.57625e-06
2.56948e-06
6.77201e-09
-9.72353e-09
-1.93019e-06
1.919e-06
1.96389e-09
2.3938e-06
-4.49693e-07
-1.94411e-06
1.65457e-06
2.54874e-06
-2.55581e-06
7.0767e-09
1.97128e-06
2.10324e-06
2.96306e-08
1.80482e-06
2.6136e-06
-5.00732e-08
2.54021e-06
8.52584e-09
1.87047e-06
-1.87047e-06
-9.84703e-07
2.58478e-06
-2.56437e-06
-7.86461e-09
2.5632e-06
-2.55359e-06
-9.60962e-09
5.0565e-08
-2.61202e-06
2.56145e-06
2.69278e-07
-2.58515e-06
-2.57158e-06
2.5671e-06
4.47948e-09
1.85673e-06
-1.85562e-06
-1.1128e-09
1.95639e-06
-1.72654e-06
1.72654e-06
2.54544e-06
-5.22429e-09
-1.9083e-06
-1.78291e-06
1.79555e-06
1.98131e-06
-2.09522e-08
-5.8675e-09
2.03069e-07
-2.52793e-06
2.56266e-06
-2.5636e-06
9.34832e-10
6.03e-08
1.79643e-06
5.96716e-08
2.05384e-06
1.92828e-06
-1.38215e-08
-2.56598e-06
2.56289e-06
3.089e-09
2.54326e-06
-2.55062e-06
7.35769e-09
-2.56345e-06
-1.25938e-08
2.55664e-06
-2.54981e-06
-6.8247e-09
1.93098e-06
3.70403e-08
2.55802e-06
1.11961e-08
-3.31839e-09
2.55246e-06
1.04275e-08
-4.02436e-10
-1.89183e-06
-2.59135e-06
2.75186e-08
-1.91774e-06
1.91774e-06
2.53212e-08
2.36848e-06
-1.94886e-06
3.73472e-07
1.36416e-08
2.55749e-06
1.07161e-07
-1.84717e-06
1.74001e-06
1.81642e-08
2.56033e-06
2.44299e-06
-2.6641e-06
1.93051e-06
6.93637e-08
2.54186e-06
-1.94656e-08
1.81264e-06
-1.864e-06
8.37993e-09
1.83753e-06
-2.82026e-07
-2.54822e-06
2.54822e-06
-2.5618e-06
-1.44527e-08
1.72906e-06
-1.7912e-06
6.21375e-08
-2.56033e-06
1.88597e-06
-1.88445e-06
2.55675e-06
1.27294e-08
-2.55785e-06
-2.27716e-06
1.58638e-06
-2.56901e-06
2.56469e-06
4.32546e-09
1.74442e-06
1.65143e-07
1.90066e-06
1.13902e-08
-2.53985e-06
2.55747e-06
-1.76192e-08
-1.9321e-06
1.9152e-06
1.69036e-08
-2.54797e-06
8.11507e-09
1.92228e-06
-3.28001e-09
1.05029e-07
-1.98561e-06
1.88058e-06
2.54747e-06
-2.55888e-06
1.14041e-08
2.07247e-06
-2.16946e-06
2.54716e-06
-2.54688e-06
-2.84058e-10
-1.62545e-06
1.62545e-06
-2.00416e-06
2.00416e-06
-2.5442e-06
-3.76596e-09
-1.1892e-06
1.40943e-06
-2.55159e-06
2.54782e-06
3.77161e-09
2.0179e-08
2.5538e-06
1.59098e-06
-1.40943e-06
-1.59098e-06
1.67897e-06
1.68671e-06
-1.93948e-06
2.33499e-06
-1.38176e-06
-9.53227e-07
-2.56065e-06
-1.09257e-08
-3.67732e-07
-1.67897e-06
2.0467e-06
2.55739e-06
9.70666e-09
-1.93839e-06
1.79387e-06
2.56487e-06
-2.55966e-06
-5.21594e-09
-2.54964e-06
-1.92099e-06
1.93188e-06
-6.14109e-08
-6.89819e-09
2.56337e-06
2.5524e-06
-1.89914e-06
-2.61339e-06
-1.53506e-06
1.95763e-06
-4.22567e-07
-2.53847e-06
-9.28578e-09
2.54928e-06
3.18142e-09
1.48642e-06
-1.51954e-06
3.31239e-08
2.96305e-09
1.7912e-06
-1.86346e-06
7.22618e-08
1.18199e-06
1.19283e-06
-2.55951e-06
-9.50431e-09
-1.9402e-06
2.53807e-06
-2.53592e-06
-2.15486e-09
2.55639e-06
8.30141e-09
-2.56389e-06
2.5611e-06
2.79029e-09
1.96101e-06
1.93098e-06
-2.54463e-06
2.53897e-06
5.66053e-09
2.56258e-06
-2.56142e-06
-1.15864e-09
-1.90678e-06
1.93051e-06
2.54342e-06
-2.54342e-06
1.02584e-08
2.56478e-06
-1.60569e-06
-3.43171e-07
2.54867e-06
-1.1943e-09
-3.26367e-07
1.74019e-06
-1.41383e-06
2.54219e-06
-2.53999e-06
-2.1963e-09
7.83784e-09
2.5526e-06
2.53753e-06
-2.53984e-06
2.3102e-09
-2.56733e-06
-2.55801e-06
-1.54178e-06
2.25965e-09
2.56019e-06
-2.82533e-09
-2.55154e-06
2.55436e-06
-2.54358e-06
2.53798e-06
5.59752e-09
-2.55941e-06
-4.47987e-09
-1.93721e-06
-1.87202e-06
8.01808e-09
2.55674e-06
4.36075e-09
-2.54125e-06
2.54018e-06
1.07736e-09
-2.54298e-06
9.66192e-09
2.53332e-06
2.55866e-06
6.20744e-09
-2.5507e-06
-8.95203e-09
-1.86174e-06
-8.73732e-09
2.55742e-06
-2.55897e-06
1.55179e-09
2.54262e-06
-2.54545e-06
-2.54749e-06
2.54397e-06
3.52702e-09
2.54112e-06
-2.53906e-06
-2.05678e-09
1.91621e-06
1.53204e-09
2.55824e-06
4.34436e-09
-2.55463e-06
-6.79377e-09
-2.56395e-06
1.93188e-06
-2.54251e-06
2.5374e-06
5.10912e-09
1.68783e-06
-1.79773e-06
-2.53533e-06
2.54489e-06
-9.56044e-09
2.54325e-06
-2.54708e-06
3.82479e-09
-6.34873e-09
-2.55691e-06
-2.50615e-09
-6.69822e-09
-2.25819e-06
1.6022e-06
-4.40685e-09
2.54262e-06
-4.26286e-09
-2.76545e-09
-2.5591e-06
2.18946e-09
9.80656e-07
2.14904e-06
-3.1297e-06
-5.29553e-07
2.55739e-06
2.99587e-11
-2.5526e-06
4.79404e-09
2.55006e-06
-2.55408e-06
-4.89115e-09
-1.92263e-06
-2.56166e-06
2.56172e-09
9.10406e-09
2.54925e-06
-3.77306e-10
1.22201e-08
-2.5184e-06
2.50618e-06
2.56097e-06
-2.55967e-06
-1.29778e-09
-1.95682e-06
3.51128e-07
2.55604e-06
-2.55157e-06
-4.46994e-09
-2.55768e-06
-1.89695e-06
-1.0024e-07
2.5406e-06
-2.53858e-06
-2.01877e-09
1.34432e-08
-2.52079e-06
2.50734e-06
-2.56032e-06
2.55552e-06
4.79533e-09
-1.93618e-06
1.91977e-06
1.64062e-08
2.20011e-09
-2.56027e-06
-1.39152e-09
-1.94858e-06
4.04293e-07
1.54428e-06
-2.55696e-06
-3.36111e-09
2.56009e-06
8.76458e-10
-2.55588e-06
-3.78962e-09
-1.03239e-08
-2.56045e-06
1.83568e-10
-1.84183e-06
-2.11829e-07
2.05366e-06
1.47259e-06
1.08125e-08
-2.55006e-06
1.92074e-06
-5.53723e-09
-2.5405e-06
2.5405e-06
-4.92786e-09
2.55888e-06
1.21386e-09
-2.03786e-09
4.03403e-09
4.15491e-09
2.55984e-06
-9.60916e-10
1.51054e-09
2.55918e-06
-2.55919e-06
1.61505e-11
1.8471e-06
-1.8471e-06
-2.55391e-06
2.54838e-06
5.53247e-09
2.54478e-06
-2.54219e-06
-2.59539e-09
-3.63377e-09
2.55825e-06
1.59376e-09
2.55836e-06
8.17768e-10
-9.45001e-10
2.5585e-06
2.55614e-06
-2.55753e-06
1.38942e-09
-2.58081e-06
-2.54795e-06
-5.96477e-09
1.9702e-06
-2.4189e-08
2.55385e-06
2.28635e-09
2.1311e-08
2.55579e-06
-2.55296e-06
-2.83041e-09
-1.82594e-06
1.82594e-06
1.44938e-08
2.54467e-06
-2.54004e-06
2.54414e-06
-4.10908e-09
2.55524e-06
5.44985e-10
1.61983e-08
1.91209e-06
2.55223e-06
-2.55122e-06
-1.00553e-09
-2.53203e-06
-8.01045e-09
2.54517e-06
-2.54724e-06
2.07663e-09
2.55056e-06
1.67053e-09
2.55525e-06
3.1122e-09
-2.52599e-08
-2.52628e-06
-3.65703e-09
-2.25269e-07
-1.71521e-06
2.54103e-06
-2.5435e-06
2.47032e-09
7.57663e-08
1.77133e-06
2.55192e-06
-2.54948e-06
-2.4315e-09
-2.28349e-09
-4.44302e-08
-2.11971e-06
2.16414e-06
-1.84835e-06
1.86962e-06
-2.12674e-08
-2.52904e-06
2.52988e-06
-8.33252e-10
2.54893e-06
2.98161e-09
-2.54132e-06
-1.58705e-06
2.56771e-06
2.54998e-06
-2.54631e-06
-3.66486e-09
-2.5524e-06
2.55246e-06
-5.86696e-11
2.5452e-06
-2.54291e-06
-2.29547e-09
-2.48144e-07
-2.18325e-06
2.43139e-06
2.54732e-06
2.65832e-09
-2.53105e-06
2.00388e-09
2.55035e-06
-2.5471e-06
-3.2575e-09
1.91621e-06
-1.96174e-06
1.96174e-06
2.54939e-06
-2.54454e-06
-4.85199e-09
-4.97883e-09
2.55041e-06
-4.02517e-09
-1.91876e-06
2.54574e-06
3.65709e-09
-2.55215e-06
-4.8052e-09
-2.52709e-06
2.52846e-06
-1.37105e-09
2.55245e-06
1.40784e-09
4.35681e-08
2.52657e-06
-5.13482e-10
2.55015e-06
6.48818e-09
1.91097e-06
9.76465e-09
3.09307e-10
-2.52965e-06
2.56171e-09
1.94566e-07
7.16443e-09
8.20104e-08
2.54285e-06
-2.54522e-06
2.37474e-09
-2.52441e-06
2.52738e-06
-2.96893e-09
4.62616e-08
-1.91408e-06
1.86782e-06
3.41989e-07
-1.99264e-06
1.65065e-06
7.2611e-07
1.80783e-06
-1.80783e-06
2.54101e-06
-2.54101e-06
-2.08541e-06
1.16143e-09
-2.54579e-06
1.95012e-06
2.54947e-06
5.77681e-09
-4.79617e-07
-8.94325e-07
1.37394e-06
-2.52815e-06
3.74626e-09
-2.52938e-06
-8.26311e-08
1.0809e-06
-1.78278e-06
7.01871e-07
-1.75406e-09
1.74072e-08
2.52748e-06
5.2311e-09
1.91705e-06
-2.5532e-06
5.39656e-09
2.54282e-06
1.62216e-06
-1.97948e-06
3.57327e-07
1.6503e-06
-5.6939e-07
-3.19938e-09
-2.54038e-06
2.55364e-06
-2.53624e-06
-2.54619e-06
-2.52107e-06
2.51866e-06
2.41108e-09
5.9972e-10
2.54722e-06
2.53835e-06
2.65923e-09
2.31949e-06
-1.5403e-06
-7.79198e-07
-7.88152e-09
1.93839e-06
2.54649e-06
4.07099e-09
2.31912e-06
-2.56727e-06
1.73917e-08
2.52739e-06
-3.01612e-09
-2.53949e-06
-2.52409e-06
3.01685e-09
-1.85316e-06
4.81006e-09
1.94815e-06
-1.56227e-06
-3.85879e-07
2.53379e-06
-2.53399e-06
1.97889e-10
-2.99859e-09
7.31301e-07
-1.0278e-06
-9.62076e-07
1.98988e-06
2.53859e-06
-2.54247e-06
3.88374e-09
2.01686e-06
-1.99092e-06
-6.22684e-09
1.93721e-06
-1.66315e-06
1.18353e-06
2.536e-06
-2.53853e-06
2.52805e-09
2.55066e-06
-2.53327e-06
-1.91133e-06
6.42348e-08
-1.91839e-06
1.91539e-06
2.99365e-09
1.86346e-06
-1.90789e-06
4.08487e-08
2.5257e-06
-1.93774e-06
1.87603e-06
-6.83439e-08
2.54662e-06
-2.54353e-06
-3.09092e-09
1.98215e-06
-1.89379e-06
-8.83616e-08
2.53835e-06
-1.54152e-09
-2.53971e-06
-1.878e-06
5.98639e-09
2.35764e-07
1.44204e-06
-1.6778e-06
-2.51785e-06
2.5151e-06
2.75307e-09
2.53426e-06
8.98759e-09
-1.60438e-06
-3.35102e-07
1.86353e-08
2.52657e-06
2.54228e-06
-2.5483e-06
6.01512e-09
2.53923e-06
-4.66983e-09
-2.53125e-06
-1.97991e-06
-3.34658e-07
2.54361e-06
5.32782e-09
2.70587e-06
-5.56824e-07
-1.56407e-08
2.54123e-06
-2.52559e-06
2.53993e-06
2.35747e-09
-2.52151e-06
3.65832e-09
-2.52852e-06
-1.83601e-08
-4.80788e-09
2.50715e-06
-2.50234e-06
3.32271e-09
2.5401e-06
2.551e-06
-2.53237e-06
-2.54282e-06
-8.31773e-09
1.9402e-06
-2.70458e-09
1.92323e-06
-9.76578e-08
-1.82557e-06
2.61829e-08
1.89705e-06
-2.51078e-06
2.50597e-06
-2.5424e-06
-5.54695e-09
1.61394e-06
3.34203e-07
-9.3887e-09
1.9663e-06
-1.95691e-06
-1.62877e-06
-1.36236e-06
1.59813e-06
-2.12372e-06
2.64145e-07
1.85957e-06
2.53899e-06
1.95994e-09
-2.54195e-06
2.54838e-08
2.52816e-06
2.53522e-06
-2.53561e-06
3.87763e-10
2.54077e-06
-2.53318e-06
-7.59208e-09
-2.54417e-06
1.74564e-09
-3.68284e-09
-1.92028e-06
1.92396e-06
3.93927e-10
2.54357e-06
-1.76398e-06
5.16951e-07
-2.54093e-06
2.53945e-06
1.47089e-09
-2.51431e-06
2.51128e-06
3.03012e-09
2.49167e-08
2.07366e-06
-2.01299e-06
1.52382e-06
-3.73984e-08
-1.33965e-08
2.54266e-06
-2.52926e-06
-2.26597e-06
1.23816e-06
2.53811e-06
2.24899e-09
-2.54131e-06
2.5407e-06
6.61569e-09
-2.37373e-06
2.30329e-08
2.35069e-06
4.04133e-09
-2.51835e-06
2.53576e-06
-2.53309e-06
-2.6619e-09
-8.09649e-08
2.55094e-06
-2.46998e-06
-3.841e-09
-5.22621e-07
2.38756e-06
-1.86494e-06
-1.91133e-06
-2.10718e-06
2.53735e-06
-1.35031e-09
2.25009e-08
2.52816e-06
2.47505e-06
2.56168e-06
-2.56032e-06
-1.36307e-09
9.70793e-10
-1.92523e-06
1.92426e-06
-2.53885e-06
2.53712e-06
1.7332e-09
5.16929e-08
-1.91343e-06
1.86174e-06
2.54219e-06
-2.54118e-06
-1.0106e-09
-1.9684e-06
1.95901e-06
2.53473e-06
-2.53276e-06
-1.96628e-09
7.13669e-09
2.53363e-06
-3.03948e-08
2.54818e-06
-2.54037e-06
2.38016e-08
-1.87274e-06
2.54035e-06
-2.53989e-06
-4.59719e-10
2.53905e-06
1.47924e-09
-2.54006e-06
2.52603e-06
5.31865e-09
-2.53135e-06
6.13913e-10
2.54065e-06
-2.53352e-06
-6.26781e-09
-1.92405e-06
1.93032e-06
1.36523e-06
-2.00776e-06
6.42528e-07
-4.23643e-07
-1.95008e-06
-1.86828e-06
-4.17548e-07
-1.63749e-06
-2.53755e-06
1.47809e-08
2.52277e-06
-1.93561e-06
1.92405e-06
1.15577e-08
-5.88474e-07
-1.55547e-06
-2.53613e-06
2.2645e-06
-2.53091e-06
2.53541e-06
-4.49841e-09
-2.11414e-06
2.09279e-07
1.90486e-06
2.02264e-06
-1.55355e-06
-4.69092e-07
-2.53988e-06
5.14889e-09
2.53473e-06
1.92746e-06
-1.903e-06
5.36585e-09
2.53039e-06
-2.5401e-06
2.60468e-09
2.53789e-06
2.53742e-06
8.31556e-09
-4.32473e-10
-2.53941e-06
-8.36991e-09
-2.53256e-06
-2.53348e-06
1.92551e-06
-1.90248e-06
-1.08763e-08
5.43126e-07
1.67861e-06
-1.73355e-06
1.73355e-06
2.22116e-08
2.52879e-06
-2.87917e-06
-2.34281e-06
2.34378e-06
2.54093e-06
1.92378e-06
-1.90918e-06
-2.53712e-06
2.52875e-06
-2.14525e-06
2.19694e-06
2.53529e-06
-2.53307e-06
-2.22267e-09
3.1216e-09
2.53791e-06
-2.5676e-06
1.93176e-06
-1.93803e-06
-2.53633e-06
4.30298e-09
9.56412e-07
2.54258e-06
-2.53949e-06
-3.08957e-09
-2.5409e-06
2.53543e-06
-2.53331e-06
-2.1141e-09
-2.53502e-06
-2.52759e-09
2.52953e-06
-2.52176e-06
-1.93897e-06
2.33216e-06
2.53322e-06
-2.53242e-06
-8.07855e-10
-4.49021e-09
2.53052e-06
-1.93561e-06
1.6782e-06
-1.81805e-06
1.39846e-07
-3.12409e-06
3.12409e-06
2.53974e-06
2.54023e-06
-6.45137e-09
4.31106e-09
-2.53932e-06
2.54837e-06
-9.0473e-09
2.53465e-06
-2.53252e-06
-2.13267e-09
-2.10312e-06
2.00288e-06
7.93801e-09
2.53329e-06
-2.53981e-06
6.90799e-09
2.5329e-06
-2.5323e-06
2.53776e-06
-2.53437e-06
-1.945e-06
-2.53771e-06
8.54949e-09
2.52916e-06
-1.94746e-06
-5.54788e-09
1.90069e-06
-1.91462e-06
1.39323e-08
2.53132e-06
-2.53345e-06
2.13201e-09
4.75347e-08
-2.53768e-06
2.53344e-06
4.23887e-09
2.53642e-06
-1.86007e-06
-1.84735e-06
-3.06545e-08
2.53934e-06
-2.53934e-06
-1.28892e-08
1.9291e-06
-2.53789e-06
2.53418e-06
-2.53205e-06
-2.13052e-09
2.53888e-06
-1.42354e-08
-2.53558e-06
-1.88824e-06
-2.31465e-07
-1.93887e-06
1.516e-06
-1.69369e-06
1.77691e-07
-3.78703e-07
-1.63875e-06
2.01745e-06
2.52945e-06
-2.52272e-06
1.64394e-06
-1.91408e-06
-5.53385e-09
-2.53435e-06
2.53555e-06
-2.53345e-06
-2.1061e-09
1.94814e-06
-1.95817e-06
-5.34798e-07
-3.54636e-07
8.89434e-07
-2.02017e-06
2.03695e-06
1.95528e-06
-1.9291e-06
-7.61076e-09
-1.89616e-06
1.90378e-06
-9.86663e-09
-1.88134e-06
1.89121e-06
6.38285e-09
-1.97391e-06
1.96753e-06
1.81075e-08
-1.98146e-06
1.96335e-06
9.34613e-09
-1.94061e-06
1.93126e-06
-3.36367e-09
-1.89989e-06
1.90325e-06
-3.33697e-09
-1.89843e-06
1.90177e-06
1.14122e-06
-7.69086e-07
-3.72134e-07
1.68469e-06
1.25321e-08
2.53013e-06
1.85544e-06
-1.86764e-06
1.22075e-08
5.95974e-09
-2.53453e-06
2.52857e-06
2.54116e-06
-2.54116e-06
2.50749e-06
-3.53436e-10
-2.50714e-06
-8.59813e-09
-2.52853e-06
2.53399e-06
-2.53177e-06
-2.21594e-09
-1.57511e-06
-2.06785e-06
-4.62935e-08
1.66113e-06
3.21021e-07
2.53917e-06
-2.53564e-06
-3.53179e-09
-1.93276e-06
2.00988e-06
8.4755e-09
2.53218e-06
-1.39399e-06
-8.71979e-07
1.95267e-08
1.8184e-06
-1.83793e-06
-1.29868e-06
-2.20863e-07
-4.35714e-07
-2.68795e-07
7.04508e-07
1.90789e-06
1.90817e-06
1.99122e-06
1.99152e-06
1.97767e-06
1.95115e-06
-8.98792e-09
-1.91207e-06
1.92106e-06
1.91377e-06
-2.79316e-09
-7.52148e-07
2.53481e-06
-2.52885e-06
-6.30353e-08
2.03947e-06
-2.54222e-06
-1.73499e-06
2.1476e-06
2.50447e-06
1.71867e-09
-2.50619e-06
2.54452e-06
-5.17796e-09
-2.53902e-06
9.19471e-09
2.52982e-06
-1.91444e-06
-1.92028e-06
1.91976e-06
-1.92874e-06
-1.74702e-06
2.10854e-06
-3.6152e-07
-4.56323e-09
-2.53315e-06
1.32473e-06
-1.6511e-06
4.18136e-09
-2.53728e-06
-2.53425e-06
-6.73875e-07
-9.89274e-07
-2.52973e-06
-4.80552e-09
1.9425e-06
6.06422e-07
1.48026e-06
2.53151e-06
-2.52955e-06
-1.95751e-09
1.92862e-06
-1.27629e-06
-6.52329e-07
-9.19074e-07
4.83361e-07
-1.06589e-06
2.30406e-06
-9.23405e-07
1.91901e-06
-9.95606e-07
9.12662e-10
2.53768e-06
-2.52026e-06
2.53328e-06
-2.53476e-06
1.47611e-09
-1.43449e-06
6.11136e-07
8.23356e-07
-8.40489e-09
-1.91157e-06
1.91998e-06
2.65295e-06
-1.17293e-06
-1.48001e-06
1.79641e-09
2.5057e-06
-5.51767e-07
-8.82725e-07
-1.85146e-06
1.87099e-06
1.58044e-06
1.04251e-07
-1.84294e-06
-3.83601e-09
-1.91382e-06
1.91766e-06
1.9759e-06
-1.9156e-06
-1.17593e-06
-4.46851e-07
1.62278e-06
-2.52946e-06
2.5302e-06
-7.34098e-10
-1.86921e-06
1.89301e-06
2.53216e-06
-2.53382e-06
-1.69297e-06
-4.05755e-08
-2.55114e-06
2.54153e-06
-1.32085e-06
1.90309e-09
2.53351e-06
2.20892e-06
-1.22074e-06
-9.88178e-07
1.86841e-06
-3.52409e-07
2.0899e-06
-2.71499e-07
1.91696e-06
-1.92537e-06
2.52881e-06
-2.52886e-06
5.44221e-11
1.9184e-06
-1.92224e-06
2.32463e-09
-2.52744e-06
2.52512e-06
-1.06578e-06
-2.55077e-07
6.50208e-09