/*--------------------------------*- C++ -*----------------------------------*\
  =========                 |
  \\      /  F ield         | OpenFOAM: The Open Source CFD Toolbox
   \\    /   O peration     | Website:  https://openfoam.org
    \\  /    A nd           | Version:  12
     \\/     M anipulation  |
\*---------------------------------------------------------------------------*/
FoamFile
{
    format      ascii;
    class       volVectorField;
    location    "0.09";
    object      U;
}
// * * * * * * * * * * * * * * * * * * * * * * * * * * * * * * * * * * * * * //

dimensions      [0 1 -1 0 0 0 0];

internalField   nonuniform List<vector> 
4428
(
(0.000684736 0.00026021 1.01429e-16)
(-0.000692909 0.000286991 -9.03831e-17)
(-0.000631703 0.000289888 0)
(-0.00065288 0.000277421 0)
(0.000626517 0.000524156 8.16397e-17)
(0.000661665 0.00054284 3.27836e-21)
(-0.000625802 0.000367934 0)
(-0.000699537 0.000248674 1.46411e-16)
(0.000679572 0.00028257 -2.49066e-16)
(0.000704187 0.000200737 9.95381e-17)
(-0.000644999 0.000221429 -1.73331e-16)
(0.000637752 0.00028054 -1.76863e-16)
(-0.00072456 0.000146456 -2.0366e-16)
(-0.000219601 0.000802694 -9.5816e-17)
(0.000674613 0.000261232 0)
(0.00062052 0.000224608 0)
(0.00070527 0.000255556 0)
(-0.000645139 0.000221185 0)
(-0.000728096 0.000145339 0)
(0.000683851 0.000258886 0)
(0.000241254 0.000198672 -4.48036e-16)
(-0.000690725 0.000264091 -1.77702e-16)
(-0.000650262 0.000280924 0)
(-0.000717766 0.000237812 0)
(-0.000687344 0.000262642 2.26617e-17)
(-0.000651286 0.000236309 0)
(-0.000660697 0.000357038 1.03357e-16)
(0.000668405 0.000207165 2.07804e-16)
(0.000627604 0.000310632 0)
(-0.000736441 0.000160807 0)
(0.000686292 0.000155652 0)
(-0.000698326 0.000261629 -1.84204e-16)
(0.000693962 0.000221228 -9.00196e-17)
(-0.000715576 0.000352128 -2.77424e-16)
(-1.42944e-05 0.000937027 4.69774e-17)
(-0.00069536 0.000272872 1.99863e-16)
(-0.000686707 0.000351271 -4.41201e-21)
(0.00063317 0.000853468 1.27044e-17)
(-9.11325e-05 0.000813027 -2.62234e-17)
(-0.000654127 0.0002892 0)
(0.000694026 0.000249563 0)
(0.000616442 0.000191657 0)
(0.000652761 0.000220726 9.24319e-17)
(-0.000714953 0.000225758 1.66058e-16)
(0.000682531 0.00020675 0)
(0.000554529 0.00021008 0)
(0.000648396 0.000627588 -9.97841e-17)
(-0.000649351 0.000321292 2.03144e-16)
(-0.000663899 0.000286274 2.2446e-16)
(-0.000683757 0.000303752 0)
(0.000685712 0.000291686 0)
(0.000603462 0.000302397 1.88123e-16)
(0.000705467 0.000203777 -9.13187e-17)
(0.000612131 0.000311844 0)
(0.000631006 0.00027232 -1.39784e-17)
(0.000420704 0.000194739 0)
(0.000618221 0.000298283 -9.29931e-17)
(-0.000660001 0.000208774 0)
(0.000570409 0.000613427 1.82961e-16)
(0.000672271 0.000225728 -1.82011e-16)
(0.000704313 0.000270594 1.67097e-16)
(-0.00070714 0.000223257 0)
(0.000611106 0.000240202 2.79952e-16)
(-0.000697104 0.000260711 9.26984e-17)
(-0.000693853 0.000273461 0)
(0.000639328 0.000280542 0)
(-0.000710604 0.000229046 1.73158e-16)
(-0.000657542 0.000282497 -1.85821e-16)
(0.000662581 0.000233936 -1.82186e-16)
(-0.000681655 0.000295926 -3.61909e-16)
(-0.000713447 0.000219032 -9.16133e-17)
(0.000666179 0.000305639 2.12653e-16)
(0.000730805 0.000325698 5.80507e-17)
(-0.000643985 0.000271096 4.46954e-17)
(0.000680997 0.000240007 1.9665e-16)
(-1.20909e-05 0.000920551 -1.83296e-16)
(0.000707099 0.000326301 0)
(0.000727739 0.00029165 0)
(-0.000634493 0.000371245 -1.18145e-16)
(0.000485204 0.000224781 -4.27528e-21)
(0.000620011 0.000319896 -1.97539e-16)
(-0.000706265 0.000221233 0)
(0.000649951 0.000315189 -1.81064e-16)
(0.000662977 0.000281617 -1.72066e-16)
(0.000703501 0.000253487 3.18306e-16)
(-0.000764487 0.000229884 -2.5469e-16)
(-9.4149e-05 0.00104766 1.15144e-16)
(-0.000705914 0.000258876 0)
(-0.000695223 0.000264034 -9.60343e-17)
(0.000634538 0.00027897 2.04742e-17)
(0.000682472 0.000201738 8.36651e-17)
(0.000699131 0.000250352 -1.59369e-16)
(-0.000706268 0.000280716 0)
(-0.000708116 0.000264775 0)
(-0.000694447 0.000274017 9.81696e-17)
(-0.000672135 0.000285709 1.6712e-16)
(0.000699129 0.000275921 1.13531e-16)
(-0.00071718 0.000273004 -1.19903e-16)
(-0.000714408 0.000216657 9.28708e-17)
(0.000645363 0.000357662 0)
(0.00064428 0.000297291 -2.25142e-17)
(0.000666185 0.000262521 0)
(0.000683512 0.000239512 0)
(0.000617214 0.000233651 -1.87987e-16)
(0.000613791 0.000293469 -1.03702e-16)
(0.000626985 0.000301729 2.48219e-21)
(0.000671779 0.000276581 1.90327e-16)
(-0.000688703 0.000334078 -1.22456e-16)
(0.000704793 0.00027388 -1.20823e-16)
(0.000647772 0.00032924 0)
(0.000669413 0.000218962 1.64696e-16)
(0.000671431 0.000257323 -1.94805e-16)
(-0.000645131 0.000267283 2.63245e-21)
(0.000635927 0.000242481 1.65965e-16)
(-0.000392096 0.000245796 1.15542e-16)
(-0.000713926 0.000213829 1.80233e-16)
(-0.000153017 0.000898256 0)
(0.000278399 0.000218153 5.24747e-17)
(-0.000721003 0.000235034 8.87654e-17)
(0.000724497 0.000286377 -1.12861e-16)
(0.000727071 0.000281603 2.11532e-16)
(-0.000635044 0.000374301 2.41279e-16)
(0.000464384 0.000759984 -1.96897e-16)
(0.000688763 0.000224245 -3.0362e-16)
(6.92184e-06 0.000937486 1.7876e-16)
(-0.000697945 0.000260957 0)
(-0.00070825 0.000233736 -2.72259e-16)
(0.000643465 0.000274023 9.95092e-17)
(-0.000694077 0.000283964 -3.04102e-16)
(-0.000696601 0.000271881 9.66771e-17)
(-0.000713165 0.000221087 -1.87133e-16)
(-0.000681996 0.000282212 0)
(0.000692151 0.000277333 2.24127e-16)
(0.000658321 0.000250852 0)
(0.000668556 0.000260358 0)
(0.000714825 0.0003086 6.53776e-21)
(0.000716962 0.000299998 -2.43671e-16)
(-0.000712625 0.000216756 -1.82389e-16)
(-0.000698071 0.000267568 -1.83551e-16)
(-0.000690764 0.000280013 1.43949e-16)
(-0.000691766 0.000338111 -1.23707e-16)
(-0.000697841 0.000252239 -9.67488e-17)
(0.000658366 0.00026499 0)
(0.000663382 0.000267513 -1.9943e-16)
(0.000692657 0.000258565 0)
(0.000655589 0.000252726 9.67649e-17)
(0.000710042 0.000327452 1.28475e-16)
(-1.6367e-05 0.000664341 -9.13951e-17)
(0.000736936 0.000192351 2.8889e-16)
(-9.67485e-06 0.000934689 4.54411e-17)
(-0.000697452 0.000261203 -1.99514e-16)
(-0.000451657 0.000204425 1.00284e-16)
(0.0006606 0.000206039 -9.6428e-21)
(0.000737878 0.000250931 -2.48625e-16)
(-0.000696108 0.000271631 2.91596e-16)
(0.00070546 0.000261631 0)
(0.000644641 0.000431858 -1.77128e-16)
(0.000687086 0.000201449 -9.48487e-17)
(0.000683612 0.000241854 -1.78768e-16)
(-0.000703786 0.000225353 -9.12348e-17)
(-0.00069282 0.000288577 1.95448e-16)
(0.000673968 0.000267178 0)
(0.000730978 0.000222616 0)
(-0.000244019 0.000109272 -2.17178e-16)
(-0.000732896 0.000313227 1.19565e-16)
(-0.000713406 0.000219287 0)
(-0.000694654 0.000254391 0)
(0.000729953 0.000230341 0)
(-0.000695038 0.000266682 1.936e-21)
(-0.000697832 0.00030183 9.36792e-17)
(-0.000710943 0.000230026 -9.38003e-17)
(0.000695645 0.000277365 4.00016e-21)
(-0.000699239 0.000262195 0)
(0.000624345 0.000265498 0)
(0.000640958 0.000833616 -1.16376e-17)
(-0.000739732 0.000316609 2.2908e-16)
(0.000702281 0.000251587 0)
(0.000608535 0.000315305 2.14592e-16)
(0.000659975 0.000284755 2.17942e-16)
(-0.000738811 0.000311456 1.1432e-16)
(-9.67791e-05 0.000936441 -7.00138e-21)
(-0.000673427 0.000279889 1.7508e-16)
(-0.000702123 0.000245596 1.91952e-16)
(0.000646165 0.000245203 0)
(-0.000696933 0.000261579 3.00574e-16)
(-0.000689299 0.00032535 -9.52178e-17)
(0.000689279 0.000267992 0)
(-0.000695062 0.000270969 0)
(0.000596173 0.000250401 3.43574e-16)
(0.000687954 0.000307911 0)
(0.000674971 0.000245379 0)
(0.000703592 0.000345125 2.58472e-17)
(0.000684882 0.000241274 0)
(0.00068812 0.000298312 -3.67876e-16)
(-0.00067211 0.000324669 0)
(-0.000670608 0.000321944 -1.80869e-16)
(-0.000670032 0.000321048 2.70926e-16)
(-0.000663474 0.000314959 8.88782e-17)
(0.000947484 0.000549107 1.4876e-16)
(-0.000218181 0.000991457 0)
(0.000686798 0.000312336 2.13765e-16)
(-0.000701658 0.000253943 -1.94082e-16)
(0.000549131 0.000293139 -1.9031e-16)
(-0.000706463 0.000226341 0)
(0.000624351 0.000245169 -1.76633e-16)
(0.000679233 0.000238552 -2.98061e-18)
(-0.000693628 0.000267773 9.3259e-17)
(-0.000154435 0.00107703 -1.7791e-16)
(-0.000348057 0.000933187 1.11842e-17)
(0.000460563 0.000240577 0)
(0.000696749 0.000301655 0)
(0.00076325 0.000264233 0)
(0.000691561 0.000290541 5.93465e-21)
(-0.000700501 0.000246173 0)
(0.000677741 0.000252631 0)
(-0.000678252 0.000317845 -1.4009e-16)
(-0.000671768 0.000313696 1.83786e-16)
(2.41122e-05 0.000935489 -1.84694e-16)
(-0.00065661 0.000256666 1.993e-16)
(-0.00066762 0.000319409 -4.53597e-17)
(0.000690463 0.000288316 1.95366e-16)
(0.000737363 0.000254294 -6.15124e-17)
(-0.00069065 0.000269409 1.85471e-16)
(0.000716344 0.000315666 0)
(-0.000672485 0.000320718 0)
(-0.000696529 0.000262183 0)
(-0.000701352 0.000269181 -1.08727e-16)
(0.000674294 0.000241896 -1.93045e-16)
(0.000642766 0.000271954 3.78508e-21)
(-0.000694467 0.000270675 0)
(-0.000696869 0.000253334 9.83251e-17)
(-0.000429918 0.000853677 0)
(0.000587855 0.000369817 0)
(0.000109511 0.00103756 8.61759e-17)
(0.000654185 0.000267495 5.74633e-17)
(-0.00067759 0.0003098 0)
(-0.000674792 0.000316035 0)
(-0.000675017 0.00031361 1.88219e-16)
(-0.000677251 0.000312042 -1.86176e-16)
(-0.000705078 0.000230674 2.97772e-16)
(-6.9324e-05 0.000181512 5.1389e-17)
(-0.000724031 0.000282499 -5.90071e-17)
(-0.000662103 0.000315481 6.2371e-17)
(0.000675783 0.000269203 2.23737e-17)
(-0.000699277 0.000248353 -9.62593e-17)
(-0.000190496 0.000703571 -1.01157e-16)
(-0.000690983 0.000331505 1.89328e-16)
(-0.000701453 0.000250517 1.92818e-16)
(0.000804864 0.000537385 0)
(-7.79997e-05 0.000702287 0)
(-0.000728906 0.000299917 6.07366e-21)
(0.000661333 0.000262989 2.04397e-16)
(0.000692013 0.00029036 -1.05651e-16)
(-0.000672529 0.000313208 1.8189e-16)
(0.00059783 0.000221365 -1.31319e-16)
(0.000121529 8.11453e-05 1.07918e-16)
(-0.000674749 0.000313858 -3.65591e-16)
(5.9519e-06 0.00092898 0)
(-0.000797646 0.00028142 -3.66794e-17)
(-0.000680234 0.000310933 -2.11765e-16)
(-0.000678229 0.000311819 1.90022e-16)
(-0.000241872 0.000121362 2.17219e-16)
(-0.000696334 0.00025495 0)
(0.000742952 0.000151945 1.23014e-16)
(-0.000674688 0.000311488 -9.37858e-17)
(-0.000691996 0.000268394 -1.00074e-16)
(0.000706093 0.000255619 0)
(-0.000675476 0.000312834 0)
(-0.000470079 0.00102613 1.37279e-16)
(-0.000717867 0.000243009 -1.83739e-16)
(0.000677038 0.000233121 0)
(0.000704997 0.000330533 2.37182e-16)
(0.000674403 0.000268885 1.23126e-17)
(-0.000137177 0.000755925 2.58445e-16)
(-0.000696912 0.000263445 0)
(0.000658457 0.000280948 1.98134e-16)
(0.000682496 0.000257635 -2.63565e-16)
(-0.000697784 0.000252439 1.94299e-16)
(0.000726627 0.000350605 0)
(0.000116494 7.83644e-05 -1.10466e-16)
(-0.000763471 0.00031866 -2.53158e-22)
(-0.000119097 0.000953679 9.6342e-17)
(0.000676503 0.000255946 0)
(-0.000703597 0.000234246 -2.99179e-16)
(0.00062845 0.000356029 3.9335e-16)
(0.000616254 0.000356026 -9.12451e-17)
(0.000682942 0.000268151 -1.32952e-17)
(0.000685874 0.000233024 -1.26249e-16)
(0.000686383 0.000271823 1.9444e-16)
(0.000688125 0.000254724 0)
(-0.0007649 0.000227409 1.43581e-16)
(-0.000721824 0.000235688 -1.87094e-16)
(-0.000681331 0.000305107 -7.47205e-19)
(0.000646937 0.000315272 0)
(0.000635378 0.000281217 2.14674e-16)
(0.00022063 7.61365e-05 2.31987e-16)
(-0.000692424 0.000258039 1.95536e-16)
(-0.000673408 0.000310768 2.07965e-16)
(-0.00068991 0.000315279 0)
(-0.000425319 0.00100101 1.96765e-16)
(-0.000699587 0.00025403 5.90577e-21)
(0.000647243 0.000244933 1.14695e-16)
(-0.00069569 0.000256171 0)
(-0.000678448 0.000310498 -1.18784e-17)
(-0.000677588 0.000312592 0)
(-0.000676836 0.000312505 -1.85914e-16)
(-0.000696804 0.000272085 0)
(-9.85665e-05 0.00103499 -1.19594e-16)
(0.000452817 0.000257316 -3.44562e-16)
(0.000669056 0.000347739 1.25598e-16)
(-0.000697417 0.000254616 9.79722e-17)
(0.00066621 0.000263559 0)
(0.00071218 0.000340949 -1.26568e-16)
(-0.000117163 0.00101485 -1.90457e-16)
(0.000417937 0.000140551 -2.23908e-16)
(0.000675029 0.000276958 0)
(0.000688376 0.000306454 0)
(0.000670636 0.000285155 -1.87618e-16)
(-0.00070224 0.000238281 0)
(-0.000692579 0.000264431 1.96572e-16)
(-0.000172611 0.00111791 -6.17614e-18)
(-0.000734803 0.000321188 -1.01492e-16)
(-0.000641831 0.000246863 6.10886e-17)
(0.000663399 0.00025717 3.89328e-16)
(-0.000493313 0.00151863 -1.4608e-16)
(0.00113441 0.000447227 -1.9788e-16)
(0.000643558 0.000298964 -2.12587e-16)
(-0.00068787 0.000267617 9.64317e-17)
(-0.000688945 0.000322463 -1.21775e-17)
(-0.000672374 0.000315258 -1.89497e-16)
(0.000673051 0.000256949 2.09792e-16)
(-0.0006929 0.000258865 0)
(-0.000695712 0.000256776 9.9086e-17)
(-0.000797025 0.000279166 1.50961e-16)
(-0.000697937 0.00033291 0)
(-0.000687394 0.000316691 0)
(0.000709048 0.000333117 -1.23285e-16)
(0.000639299 0.000245037 0)
(-0.000696492 0.000261825 0)
(0.000649721 0.000246297 0)
(-0.00067773 0.000311223 1.18325e-17)
(-0.000686042 0.000307247 7.54746e-19)
(0.000630452 0.000204638 0)
(0.000680677 0.000253082 1.92893e-16)
(-5.96367e-06 0.000935987 0)
(0.000681179 0.000221751 0)
(-0.000698584 0.000256805 4.92544e-17)
(-0.000702128 0.000250541 -3.01488e-16)
(6.80906e-05 0.000412047 0)
(-0.000690507 0.000266482 -1.93421e-16)
(-0.000728421 0.000160711 9.23832e-17)
(-0.000737018 0.000284448 -4.39684e-21)
(-0.000740853 0.000248033 -2.434e-16)
(-0.000797692 0.000273311 1.51164e-16)
(-0.000679925 0.000324072 0)
(-0.000703073 0.000242576 2.02118e-16)
(-0.00069017 0.000265169 1.00296e-16)
(0.000679037 0.000256809 0)
(-0.00068382 0.000234282 1.62548e-16)
(-0.000693688 0.000257982 -2.68743e-16)
(-3.87832e-06 0.000907085 0)
(-0.000674336 0.000308755 -2.80441e-16)
(-0.000695276 0.000290239 0)
(-0.000698005 0.000259617 0)
(0.000690175 0.000252561 2.0312e-16)
(-0.000695769 0.000254627 1.01386e-16)
(0.000606508 0.000217398 2.14784e-16)
(0.00068688 0.000277739 -2.03934e-16)
(-0.000487771 0.000237994 0)
(-0.000737168 0.000247302 0)
(-0.000691013 0.000266491 0)
(0.000676143 0.000263281 -2.12712e-16)
(0.000692399 0.000302317 0)
(0.000683564 0.000258502 0)
(-0.000740636 0.000321168 -2.99367e-16)
(0.000109129 0.000911923 2.17989e-16)
(-0.000682644 0.000320133 1.92282e-16)
(0.000711368 0.000217801 -2.15592e-16)
(-1.37503e-05 0.000483947 -6.19438e-17)
(-0.000694856 0.000271024 0)
(-0.000692085 0.000295 2.99759e-16)
(-0.000662738 0.000315476 -1.80342e-16)
(7.54453e-05 0.000710667 1.08288e-16)
(0.000726788 0.000142219 0)
(0.000747875 0.000190094 1.14709e-16)
(0.00065301 0.000278912 1.77803e-16)
(-0.000138326 0.000104865 2.10734e-16)
(-0.00069357 0.000256151 -9.03943e-17)
(0.000682372 0.000270529 0)
(0.000423725 0.00016003 0)
(0.000587999 0.000178337 3.86494e-16)
(-0.000691858 0.000266916 0)
(0.000717416 0.000227205 -1.07231e-16)
(-0.000744679 0.000191378 1.26096e-16)
(-0.000697072 0.0002656 9.58133e-17)
(0.000659932 0.000264144 -1.9517e-16)
(-0.00079237 0.000296711 -1.35983e-16)
(-0.000660911 0.000279248 1.84901e-16)
(-0.000757768 0.000348835 1.01009e-16)
(-0.000517823 0.00020526 -1.08944e-16)
(-0.000698142 0.000263594 0)
(-0.000695423 0.000264398 0)
(-5.00139e-05 0.000348842 0)
(8.57501e-06 0.000904813 -2.50984e-16)
(-0.000738192 0.00025672 0)
(-0.000700135 0.000345916 -8.72316e-17)
(0.000674641 0.000258049 3.76168e-16)
(0.000646957 0.00027457 -1.11177e-16)
(0.000675508 0.000238131 3.79534e-16)
(0.000683363 0.000283451 -5.49162e-17)
(0.000678109 0.000257327 -5.54859e-21)
(-0.000688855 0.000278024 -4.91296e-17)
(-0.000690679 0.000269857 -9.6368e-17)
(-5.66803e-05 0.00106746 5.974e-18)
(-0.000693131 0.00026749 -1.95299e-16)
(-0.000688525 0.000288377 -5.15038e-17)
(0.000645097 0.000280495 0)
(-0.000695224 0.000267283 -9.75882e-17)
(-0.000747419 0.000280106 -3.58927e-16)
(-0.000679423 0.000305186 -1.39396e-17)
(-0.000698298 0.000260886 0)
(-0.000704671 0.000226487 4.83502e-17)
(-0.000694858 0.000257251 -9.87681e-17)
(0.000735839 0.000324365 -2.08726e-16)
(-0.000689429 0.000273714 -9.94729e-17)
(9.93294e-05 0.00103583 6.96563e-18)
(0.000660946 0.000239615 2.44315e-17)
(-1.96954e-05 0.00101431 -1.98863e-16)
(-0.000768845 0.000323918 2.82356e-16)
(-0.000670813 0.000225727 -3.98534e-16)
(0.000676904 0.000261178 1.03055e-16)
(-0.000769657 0.000324249 1.25938e-16)
(0.000100448 0.00052731 8.11338e-17)
(-0.000687751 0.000272627 1.97982e-16)
(0.00065849 0.000224126 1.76673e-16)
(-7.57232e-06 0.000995287 0)
(-1.71418e-05 0.000874596 -2.8393e-16)
(-0.000690021 0.000285495 -1.5723e-16)
(0.000668813 0.000227938 -5.19591e-17)
(-7.83226e-06 0.000992634 7.90284e-19)
(0.000812115 0.00032327 9.76721e-17)
(-0.000638074 0.000256328 2.95302e-16)
(-0.000697045 0.000264829 -5.09891e-17)
(-0.00070635 0.000247358 0)
(-0.000720758 0.000261974 2.29035e-16)
(0.000668776 0.000270649 -2.02299e-16)
(-0.00069091 0.000270366 -9.68025e-17)
(0.000665944 0.000264641 0)
(-1.58782e-06 0.000987297 -2.01875e-16)
(-0.000745803 0.000283629 1.20771e-16)
(0.000777588 0.000696828 -3.66333e-16)
(0.000686367 0.000261562 0)
(-4.40252e-06 0.000987412 0)
(0.000704389 0.00028237 5.94316e-21)
(2.9441e-06 0.000984499 -2.02113e-16)
(1.56229e-06 0.000987185 4.01909e-16)
(-0.000688814 0.000270467 4.98498e-17)
(-6.16814e-05 0.0010171 1.9771e-16)
(-2.62093e-06 0.000983798 0)
(-6.35391e-06 0.000988439 2.01159e-16)
(-0.000689411 0.000268817 0)
(0.00079665 0.000439671 0)
(3.24956e-06 0.000985872 0)
(-1.53187e-06 0.000985773 -2.01442e-16)
(-0.000687577 0.00028251 0)
(-3.5383e-06 0.000986457 4.05278e-16)
(-0.000695754 0.000263698 0)
(-1.44735e-06 0.00098639 -2.02422e-16)
(-0.000690154 0.000268986 -2.93186e-16)
(-1.73433e-06 0.000983142 0)
(-0.000683444 0.000283668 9.67038e-17)
(-0.000312391 0.00112751 -4.71375e-17)
(0.000725641 0.000329389 2.50261e-16)
(0.000747504 0.000280071 0)
(1.979e-07 0.000985694 1.45304e-20)
(-3.86901e-06 0.000987119 -1.99392e-16)
(-0.000703238 0.000228959 -8.51758e-17)
(0.000659544 0.000296287 -2.05745e-16)
(0.000589511 0.000240358 0)
(0.00067333 0.000259118 3.10266e-16)
(-7.24581e-07 0.000985918 2.02002e-16)
(-0.000687979 0.000269767 0)
(-2.42865e-05 0.00099686 2.00566e-16)
(-7.18184e-07 0.000983628 0)
(-1.68565e-06 0.000985164 -2.04883e-16)
(-0.000692599 0.000269942 0)
(0.000678705 0.000296002 1.95269e-16)
(-0.000694943 0.000265856 2.68263e-21)
(2.36644e-07 0.000983335 2.02888e-16)
(0.000687784 0.000252339 -4.19354e-16)
(0.00010549 0.000579614 0)
(-3.56459e-06 0.000987026 0)
(0.000764068 0.000353212 1.46626e-16)
(0.000678407 0.000235348 0)
(-7.70423e-05 0.00105799 0)
(-0.000694911 0.000262878 -3.52294e-16)
(-2.65147e-05 0.00100992 0)
(-0.00069075 0.000269797 9.75582e-17)
(-0.000585663 0.000500424 -5.25381e-17)
(-0.000687557 0.000282693 2.01114e-16)
(2.41743e-07 0.000984168 -4.0463e-16)
(-0.00070547 0.00026026 5.41578e-17)
(-0.00068315 0.000283772 1.92966e-16)
(-1.21081e-06 0.000984732 0)
(-2.39141e-06 0.000983231 -1.98251e-16)
(0.000634753 0.000212951 0)
(3.19867e-07 0.000985391 -2.04209e-16)
(6.3692e-07 0.000984384 0)
(-4.6286e-05 0.00102367 2.01278e-16)
(-3.74853e-07 0.000879125 -2.27207e-16)
(-0.000680492 0.000297027 1.17408e-16)
(-1.42495e-05 0.00099861 9.81742e-20)
(0.000490024 0.000143865 0)
(-0.00071389 0.00026031 7.99859e-17)
(-0.000675221 0.000286978 4.68858e-17)
(2.10677e-06 0.00098281 4.05019e-16)
(-3.91163e-06 0.000986515 2.01604e-16)
(-0.000704817 0.000272714 -4.66004e-16)
(6.2297e-07 0.000984531 2.02686e-16)
(0.000619582 0.000193538 6.64149e-21)
(-5.08169e-06 0.000984654 2.00604e-16)
(-0.000697574 0.000265072 0)
(-0.000686595 0.000276095 5.12185e-17)
(-5.17016e-07 0.000984904 -1.45967e-20)
(0.000670728 0.000337548 2.10084e-16)
(-0.00069336 0.000270898 -1.02842e-16)
(-0.000683919 0.000282547 -8.99004e-17)
(-2.45574e-06 0.000986019 -2.01527e-16)
(0.000673429 0.000264289 3.51598e-18)
(-1.05235e-07 0.000985301 -1.46007e-20)
(-0.000700123 0.000264229 4.80869e-17)
(3.17079e-06 0.000983531 0)
(-0.000695316 0.000262583 0)
(-5.74959e-06 0.000986057 -2.01468e-16)
(4.98985e-07 0.000985232 2.02268e-16)
(0.000670951 0.000279905 -2.45281e-17)
(-0.000708011 0.000244065 2.19722e-16)
(-5.24299e-06 0.000984806 1.99774e-16)
(1.22024e-06 0.000983357 0)
(-0.00068884 0.000280015 0)
(-0.000685899 0.000282313 1.53404e-16)
(-0.000709062 0.000223857 0)
(-3.69049e-05 0.00060657 -1.0831e-16)
(-1.82805e-07 0.000985224 2.02712e-16)
(-0.000684244 0.000281443 -1.45373e-16)
(-0.000689329 0.000271358 0)
(-0.000686469 0.00026112 5.30131e-17)
(-9.18187e-06 0.000988123 1.97009e-16)
(4.56774e-08 0.000983759 -1.46739e-20)
(-0.000691526 0.000264288 -5.14131e-17)
(0.000400735 4.82778e-05 -2.18994e-16)
(-8.78927e-06 0.000990326 -2.00428e-16)
(-2.86555e-06 0.000986346 2.02107e-16)
(1.35611e-06 0.000983919 2.02984e-16)
(-1.61883e-07 0.000987216 -2.00158e-16)
(0.000821851 0.000417663 -1.92049e-16)
(-5.92946e-06 0.000984799 -2.01111e-16)
(-0.000696576 0.000263101 0)
(-0.000687874 0.000261199 0)
(0.000662144 0.000260311 0)
(-1.52245e-06 0.00098367 -2.03572e-16)
(-0.000683274 0.000283307 2.48144e-16)
(0.00066993 0.000248382 -1.57152e-16)
(-0.000658905 0.000267591 2.71355e-16)
(-0.000690772 0.000269039 -1.96918e-16)
(-0.000691818 0.000267516 -1.01263e-16)
(-0.000746204 0.000351188 -1.00455e-16)
(-2.97604e-06 0.000984076 -4.05797e-16)
(2.69393e-06 0.000983794 8.4629e-20)
(-0.000691136 0.00028751 -5.80052e-17)
(-0.000692268 0.000277149 4.59962e-17)
(-0.000692106 0.000268708 -5.05271e-17)
(3.98267e-06 0.000985 -2.02619e-16)
(8.02723e-07 0.00098378 4.1023e-16)
(-4.87181e-06 0.000984831 -2.02963e-16)
(8.31816e-07 0.000984813 -7.95376e-19)
(-0.000690683 0.000273299 4.91299e-17)
(-3.44617e-06 0.000984161 0)
(4.73249e-06 0.000984499 -2.03786e-16)
(3.1712e-06 0.000983443 2.02753e-16)
(4.09102e-06 0.000985061 3.50525e-20)
(-0.000692154 0.000262829 1.0207e-16)
(-5.52142e-06 0.000990266 0)
(-0.000693536 0.000263741 -2.00618e-16)
(-0.000716164 0.000257955 0)
(0.000678322 0.000259359 -2.22461e-16)
(-4.22211e-07 0.000984361 -1.57906e-18)
(0.000645112 0.000261709 1.97904e-16)
(6.27461e-07 0.000984276 -1.45351e-20)
(-5.96441e-05 0.00101026 0)
(-4.01814e-05 0.000997595 -1.99273e-16)
(-0.000693785 0.000264539 0)
(-0.000698968 0.000263732 -9.86569e-17)
(6.79419e-06 0.000983694 0)
(-0.000688195 0.000266394 -2.14075e-16)
(-0.000691414 0.000270653 -1.06355e-16)
(0.000674802 0.00026918 2.13743e-16)
(3.81735e-07 0.000984162 -2.03086e-16)
(-5.69003e-06 0.000984858 -2.03162e-16)
(-0.00069477 0.000273656 5.55541e-17)
(-1.1e-06 0.00098435 -2.00309e-16)
(-0.000685329 0.00026036 3.11589e-16)
(-4.65194e-06 0.000983968 -2.02293e-16)
(1.39573e-06 0.000984531 -1.45604e-20)
(-0.000694655 0.000304472 -2.36562e-16)
(-6.25274e-06 0.00098469 2.00632e-16)
(0.000679498 0.000256648 0)
(-0.000690376 0.000270157 -5.02515e-17)
(-3.37277e-07 0.000984159 3.18895e-18)
(-0.000695602 0.000260351 1.00776e-16)
(-1.74444e-07 0.00098384 -1.60075e-18)
(-0.00069066 0.000265126 5.04609e-17)
(-0.000657054 0.000241171 0)
(2.61745e-06 0.000984613 -1.46338e-20)
(-0.000753102 0.000318002 3.0092e-16)
(6.0238e-07 0.000985076 2.04473e-16)
(0.000633927 0.000314006 -5.8778e-17)
(-0.000673284 0.000292996 1.95207e-16)
(-2.10135e-07 0.000984435 2.04618e-16)
(0.000502903 0.000199314 2.15028e-16)
(-1.28194e-06 0.0009845 2.03323e-16)
(8.02205e-07 0.000984338 3.17274e-18)
(0.000576323 0.000211061 2.27234e-16)
(0.000616802 0.000219096 -2.12542e-16)
(0.000701346 0.000275205 0)
(-0.000749309 0.000305947 0)
(-5.74561e-06 0.000984606 -1.5911e-18)
(0.000640424 0.000244335 2.79973e-16)
(-5.59602e-06 0.000984003 -1.57974e-18)
(-0.000692085 0.000268195 -9.82436e-17)
(0.000634128 0.00021028 0)
(5.20894e-06 0.000984227 -4.0556e-16)
(8.66804e-07 0.000984259 -4.08075e-16)
(-0.000688598 0.000277815 0)
(-0.000692529 0.000262569 0)
(6.09407e-07 0.00098503 -4.05525e-16)
(-1.96351e-05 0.000994379 0)
(-0.000685471 0.000287258 -1.95482e-16)
(-1.31803e-05 0.000989897 -4.0052e-16)
(-0.000629535 0.00023066 0)
(0.000716652 0.00021823 5.24855e-17)
(4.54834e-08 0.000983215 -1.60742e-18)
(2.26708e-06 0.000985315 2.04314e-16)
(0.000538419 0.000335864 -7.03683e-18)
(2.68222e-07 0.00098423 -2.04796e-16)
(-0.000696388 0.000256895 1.57439e-16)
(-0.000749895 0.000344123 1.38985e-16)
(-6.1793e-06 0.000984441 2.01871e-16)
(-0.000695256 0.000259854 1.4575e-16)
(-1.0789e-06 0.000984697 2.04816e-16)
(-5.78422e-06 0.000984127 -2.02608e-16)
(-6.49612e-06 0.000984309 -2.01911e-16)
(-0.000685985 0.000279043 0)
(-0.000693876 0.000260776 -4.98688e-17)
(-6.93231e-07 0.000984074 -7.98795e-19)
(5.92968e-06 0.000984505 0)
(-0.000685003 0.000279044 1.98691e-16)
(-0.000691296 0.000260912 0)
(8.92164e-07 0.000984333 -2.03404e-16)
(-4.81617e-06 0.000987397 3.16236e-18)
(0.0006737 0.000261611 -2.14738e-16)
(9.02806e-07 0.000984339 -4.10859e-16)
(-0.000744014 0.000286962 3.41581e-16)
(-3.69613e-07 0.000984327 0)
(-2.93767e-07 0.000984483 2.02763e-16)
(-1.96903e-07 0.000984433 0)
(-1.19041e-08 0.000984247 2.02824e-16)
(7.47728e-07 0.000984202 -2.02311e-16)
(0.000565276 0.000225187 1.21378e-16)
(2.59147e-07 0.000984009 2.02453e-16)
(4.5414e-07 0.000986358 -1.46598e-20)
(-4.02321e-09 0.00098431 2.04806e-16)
(-6.7441e-06 0.000984476 4.04654e-16)
(-0.000693673 0.00026526 0)
(-0.000693546 0.000266752 -5.25282e-17)
(-5.88699e-06 0.000984256 0)
(-1.35735e-07 0.000984366 0)
(-7.04739e-07 0.00098394 -2.06616e-16)
(5.92773e-06 0.000984781 2.03102e-16)
(4.9197e-06 0.000984767 2.03867e-16)
(-0.000691662 0.000270314 2.577e-16)
(5.29177e-06 0.000984336 2.03298e-16)
(-3.79492e-07 0.000984558 -2.04797e-16)
(-9.34097e-07 0.000984403 0)
(-2.62423e-07 0.000984317 -1.47073e-20)
(-0.000693274 0.00026697 1.00377e-16)
(5.87456e-06 0.000984452 0)
(5.57103e-06 0.000984088 2.0344e-16)
(-2.34689e-06 0.000986219 -2.0526e-16)
(-0.000697557 0.000260018 0)
(-3.8775e-09 0.000984338 0)
(0.000679992 0.000261762 -2.13234e-16)
(-1.11067e-07 0.000985011 1.59882e-18)
(-9.35703e-08 0.000985253 -3.98546e-19)
(-4.75361e-06 0.000983507 -7.92081e-19)
(-6.55022e-06 0.000984152 1.46026e-20)
(-5.24926e-06 0.000983707 7.92729e-19)
(-0.000699962 0.000312581 -1.24098e-16)
(-6.2854e-06 0.00098363 2.03614e-16)
(3.30713e-06 0.000984467 0)
(-6.16657e-06 0.000983775 2.02166e-16)
(-6.25639e-06 0.000983981 -2.02512e-16)
(-6.60624e-06 0.000984398 -2.03453e-16)
(-0.000836322 0.000684717 -3.08469e-16)
(-0.000158866 0.000196785 -3.843e-16)
(6.06726e-06 0.000984551 -2.03717e-16)
(-5.95715e-07 0.000984248 -2.03076e-16)
(6.90262e-08 0.000984464 -2.03029e-16)
(5.45851e-06 0.00098408 2.03502e-16)
(-0.000696845 0.000262875 -2.02476e-16)
(-7.00022e-06 0.000983986 2.02144e-16)
(-6.01314e-07 0.00098448 -2.02694e-16)
(-4.53627e-06 0.000986372 -4.03174e-16)
(-5.01339e-07 0.00098418 -1.60333e-18)
(6.48174e-06 0.000984177 2.02732e-16)
(0.000674715 0.000258587 2.13268e-16)
(-2.07704e-06 0.000984808 -2.02733e-16)
(3.84925e-07 0.000984321 -1.45912e-20)
(0.000719133 0.000296225 -2.6301e-16)
(-2.11353e-07 0.000984278 0)
(-4.19858e-07 0.000984312 0)
(-6.97962e-06 0.000984168 -4.06261e-16)
(-0.000693421 0.000266014 1.00718e-16)
(1.33012e-07 0.000983732 -4.005e-19)
(-8.0918e-06 0.000984494 2.12283e-19)
(0.000678113 0.000256454 1.41757e-17)
(-7.43499e-06 0.000984992 2.03079e-16)
(7.3658e-06 0.000984525 2.03052e-16)
(6.75714e-06 0.000984335 -2.02905e-16)
(1.67955e-06 0.000984279 -2.03475e-16)
(-7.91128e-06 0.000984581 1.45959e-20)
(-0.000719411 0.000253107 -2.15478e-16)
(-0.000582885 0.000221138 2.65482e-16)
(-7.53787e-07 0.000983333 -1.46755e-20)
(-4.58835e-07 0.000984214 -2.02593e-16)
(-0.000687472 0.000279838 5.11244e-17)
(6.25459e-07 0.000984404 -1.47076e-20)
(-7.2954e-06 0.00098383 8.05165e-19)
(7.32271e-06 0.000984167 -4.0605e-16)
(3.29456e-06 0.000983228 2.03837e-16)
(6.20635e-06 0.00098394 -2.03835e-16)
(6.10987e-06 0.000984146 -2.0383e-16)
(7.31382e-06 0.000984295 2.03129e-16)
(6.07547e-06 0.00098402 1.98683e-19)
(7.26133e-06 0.000984331 0)
(0.000680033 0.000257142 0)
(-5.90197e-06 0.000984414 2.04492e-16)
(-4.76887e-07 0.000985444 0)
(1.31329e-06 0.000985076 2.0374e-16)
(7.27516e-06 0.000984288 0)
(7.2428e-06 0.000984387 2.03197e-16)
(7.34176e-06 0.000984211 -9.91931e-20)
(8.00055e-07 0.000985047 1.99367e-16)
(6.59579e-06 0.00098473 0)
(-1.80353e-06 0.000985303 0)
(-6.11287e-06 0.000985168 -2.04712e-16)
(-0.00069162 0.000267741 -2.46768e-21)
(6.45167e-06 0.000984276 0)
(-1.46193e-05 0.00100109 0)
(6.3488e-06 0.000984294 0)
(-0.000677185 0.000258131 1.57172e-16)
(5.16821e-07 0.000984307 -2.02846e-16)
(-4.55417e-06 0.000986375 2.04685e-16)
(6.63816e-06 0.000984887 -9.94067e-20)
(-0.000675933 0.000284228 5.56774e-17)
(-0.000688114 0.000279521 -5.08327e-17)
(5.8169e-06 0.000984679 -2.03824e-16)
(-1.69534e-06 0.000982789 0)
(-2.47547e-07 0.00098608 -2.03904e-16)
(5.88211e-06 0.000984765 1.46487e-20)
(7.32061e-06 0.000984147 -2.03663e-16)
(-8.44619e-07 0.000982207 4.05049e-16)
(0.000658107 0.000216296 -3.656e-16)
(0.000679354 0.000263904 -4.30926e-16)
(-9.84833e-07 0.000984652 4.07258e-16)
(0.000669824 0.000263519 0)
(5.74794e-06 0.000984767 0)
(7.43026e-06 0.000984027 -3.97005e-19)
(-0.000708607 0.000280784 -1.84025e-16)
(-0.00069041 0.000282987 1.05907e-16)
(4.62663e-07 0.000983917 -1.00206e-19)
(5.79889e-06 0.000984858 2.03875e-16)
(6.29186e-07 0.000984324 -2.03134e-16)
(-0.000630959 0.000603953 1.02779e-16)
(5.49161e-06 0.000984739 7.96862e-19)
(-7.12292e-06 0.000984846 2.03306e-16)
(-5.82796e-07 0.000985701 2.04076e-16)
(-0.0007887 0.00040387 -2.01504e-16)
(5.67276e-06 0.000985065 0)
(-4.03962e-07 0.000984426 4.01582e-19)
(-1.48956e-06 0.000985387 -2.03109e-16)
(-0.000693926 0.000263102 0)
(0.000707656 0.000197139 3.85791e-16)
(-0.000683948 0.000285737 5.36688e-17)
(5.42521e-06 0.000984843 -7.96994e-19)
(7.64838e-07 0.000984643 -2.03833e-16)
(-6.3384e-06 0.000983745 -2.03661e-16)
(-0.000690506 0.000277484 3.04101e-16)
(5.45472e-06 0.000985177 -2.04094e-16)
(-8.35967e-06 0.000984105 7.93036e-19)
(4.38083e-07 0.000983896 2.00595e-19)
(6.77529e-06 0.000984106 0)
(-2.90584e-07 0.000985859 0)
(6.8524e-06 0.000984023 0)
(7.12601e-07 0.000984692 0)
(-0.000691707 0.000263203 -5.05815e-17)
(-7.46845e-06 0.000983741 0)
(-4.86207e-07 0.000984369 0)
(0.000730304 0.000343473 1.57513e-16)
(5.05897e-07 0.000984677 0)
(-4.00493e-05 0.00102444 0)
(-1.99442e-07 0.00098587 4.08018e-16)
(3.65778e-07 0.000983903 0)
(0.000674121 0.000247019 -4.81153e-17)
(0.000677909 0.000263304 0)