/*--------------------------------*- C++ -*----------------------------------*\
  =========                 |
  \\      /  F ield         | OpenFOAM: The Open Source CFD Toolbox
   \\    /   O peration     | Website:  https://openfoam.org
    \\  /    A nd           | Version:  12
     \\/     M anipulation  |
\*---------------------------------------------------------------------------*/
FoamFile
{
    format      ascii;
    class       volVectorField;
    location    "0.15";
    object      U;
}
// * * * * * * * * * * * * * * * * * * * * * * * * * * * * * * * * * * * * * //

dimensions      [0 1 -1 0 0 0 0];

internalField   nonuniform List<vector> 
4428
(
(0.00114121 0.000433432 1.01428e-16)
(-0.00115529 0.000477521 -9.03825e-17)
(-0.00104598 0.000478822 0)
(-0.00108731 0.000459865 0)
(0.00104479 0.000868928 8.1639e-17)
(0.00108921 0.000894398 3.23802e-21)
(-0.0010399 0.000601575 0)
(-0.00116594 0.000415222 1.4641e-16)
(0.00112428 0.000462046 -2.49065e-16)
(0.00116112 0.000335035 9.95373e-17)
(-0.00106394 0.000369255 -1.73329e-16)
(0.00106797 0.000456083 -1.76862e-16)
(-0.00120093 0.000250828 -2.03658e-16)
(-0.000370861 0.00133966 -9.58152e-17)
(0.00112392 0.000436362 0)
(0.00102787 0.000376248 0)
(0.00116464 0.000419649 0)
(-0.00106441 0.000368445 0)
(-0.00120758 0.000249438 0)
(0.00113667 0.000435926 0)
(0.000403193 0.000331467 -4.48034e-16)
(-0.00115075 0.00044082 -1.77701e-16)
(-0.00108507 0.000463578 0)
(-0.00118656 0.000402178 0)
(-0.00114536 0.000437404 2.26616e-17)
(-0.00108531 0.00039988 0)
(-0.00109885 0.000585968 1.03356e-16)
(0.0011066 0.00035379 2.07802e-16)
(0.00103473 0.000510723 0)
(-0.00121718 0.000275009 0)
(0.00112864 0.000270158 0)
(-0.00116373 0.000438263 -1.84203e-16)
(0.0011455 0.000364458 -9.0019e-17)
(-0.00118527 0.000577796 -2.77421e-16)
(-1.3857e-05 0.00155558 4.69769e-17)
(-0.00115993 0.000453459 1.99861e-16)
(-0.00113976 0.000576948 -4.42164e-21)
(0.00105632 0.00142363 1.27042e-17)
(-0.000163943 0.00134913 -2.62232e-17)
(-0.00108942 0.000479174 0)
(0.00114937 0.000413734 0)
(0.00103654 0.000329846 0)
(0.00108986 0.000370416 9.24314e-17)
(-0.00118819 0.000378953 1.66057e-16)
(0.00113799 0.000355815 0)
(0.000928559 0.000349049 0)
(0.00108752 0.00104491 -9.97832e-17)
(-0.00108459 0.0005298 2.03142e-16)
(-0.00110382 0.000467874 2.24459e-16)
(-0.00113713 0.000502243 0)
(0.00114017 0.000480197 0)
(0.00101545 0.000493358 1.88122e-16)
(0.00116656 0.000334959 -9.1318e-17)
(0.0010299 0.00050815 0)
(0.00105517 0.000449854 -1.39783e-17)
(0.000690108 0.000326132 0)
(0.00101877 0.000487357 -9.29923e-17)
(-0.00110889 0.000359041 0)
(0.000950446 0.0010203 1.82959e-16)
(0.00111684 0.000380267 -1.8201e-16)
(0.00116838 0.000449113 1.67096e-16)
(-0.00116902 0.00037083 0)
(0.00101585 0.000402821 2.79951e-16)
(-0.00116129 0.000436375 9.26977e-17)
(-0.00115734 0.000454365 0)
(0.00106661 0.000468506 0)
(-0.00118445 0.000385106 1.73157e-16)
(-0.00109592 0.000468539 -1.85819e-16)
(0.00110337 0.000391991 -1.82184e-16)
(-0.0011268 0.00049035 -3.61907e-16)
(-0.00118913 0.000368736 -9.16127e-17)
(0.00111642 0.000509598 2.12652e-16)
(0.001214 0.000534201 5.80502e-17)
(-0.00107584 0.000449262 4.46951e-17)
(0.00113575 0.000398491 1.96648e-16)
(-2.01801e-05 0.00153532 -1.83294e-16)
(0.00116671 0.00053591 0)
(0.00120067 0.000472612 0)
(-0.00105179 0.000606783 -1.18144e-16)
(0.00081409 0.000382934 -4.33062e-21)
(0.0010238 0.000526552 -1.97538e-16)
(-0.00117878 0.000371482 0)
(0.00109092 0.00052423 -1.81062e-16)
(0.00110378 0.000461514 -1.72065e-16)
(0.00116447 0.000417406 3.18304e-16)
(-0.00126552 0.000395264 -2.54688e-16)
(-0.000149856 0.00173336 1.15142e-16)
(-0.00117787 0.000431343 0)
(-0.00115824 0.000441542 -9.60336e-17)
(0.00105868 0.000464759 2.0474e-17)
(0.00113741 0.000339857 8.36646e-17)
(0.00116596 0.000417357 -1.59368e-16)
(-0.00117363 0.000466655 0)
(-0.00116498 0.000434127 0)
(-0.00115779 0.000455087 9.81689e-17)
(-0.00112347 0.000472291 1.67119e-16)
(0.0011513 0.000456335 1.1353e-16)
(-0.00118094 0.000448548 -1.19902e-16)
(-0.00119061 0.000365276 9.28702e-17)
(0.00107447 0.00058332 0)
(0.00107694 0.000492057 -2.2514e-17)
(0.00111277 0.000437079 0)
(0.00114119 0.000401512 0)
(0.00103081 0.00038742 -1.87986e-16)
(0.00100931 0.000475831 -1.03701e-16)
(0.0010487 0.000506856 2.49517e-21)
(0.00111516 0.000459095 1.90325e-16)
(-0.00114253 0.000549305 -1.22455e-16)
(0.00115497 0.000454609 -1.20822e-16)
(0.00108656 0.000539952 0)
(0.00111354 0.000368234 1.64695e-16)
(0.00111914 0.000429542 -1.94803e-16)
(-0.00107619 0.000443174 2.63648e-21)
(0.00106223 0.000403822 1.65964e-16)
(-0.000646756 0.000406562 1.15542e-16)
(-0.00118775 0.000359326 1.80232e-16)
(-0.000256892 0.00149574 0)
(0.000462467 0.000361095 5.24745e-17)
(-0.00120088 0.000395512 8.87648e-17)
(0.00119908 0.000467787 -1.1286e-16)
(0.00119385 0.000464495 2.1153e-16)
(-0.00105285 0.000611432 2.41276e-16)
(0.000774047 0.00126667 -1.96895e-16)
(0.00113632 0.000368583 -3.03618e-16)
(2.52659e-06 0.00155601 1.78758e-16)
(-0.00116239 0.000436578 0)
(-0.00117957 0.000393737 -2.72257e-16)
(0.00107237 0.00045082 9.95086e-17)
(-0.00115797 0.000472699 -3.04099e-16)
(-0.00116042 0.000452295 9.66764e-17)
(-0.00118837 0.000372086 -1.87132e-16)
(-0.00113734 0.000469499 0)
(0.00114905 0.000459676 2.24126e-16)
(0.00109844 0.000413562 0)
(0.00111459 0.000434359 0)
(0.00119133 0.000514393 6.53899e-21)
(0.0011789 0.000493033 -2.43669e-16)
(-0.0011853 0.00036405 -1.82388e-16)
(-0.00116308 0.000447806 -1.8355e-16)
(-0.00115144 0.00046673 1.43948e-16)
(-0.00114748 0.000555797 -1.23706e-16)
(-0.00116353 0.000420436 -9.67481e-17)
(0.00109724 0.000440633 0)
(0.00110432 0.000447864 -1.99428e-16)
(0.00115554 0.000432619 0)
(0.00109063 0.000420135 9.67643e-17)
(0.0011746 0.000532455 1.28474e-16)
(-2.86412e-05 0.00110475 -9.13945e-17)
(0.00122303 0.000331175 2.88887e-16)
(-7.56653e-06 0.0015518 4.54407e-17)
(-0.00116161 0.000436731 -1.99513e-16)
(-0.00075481 0.000337978 1.00283e-16)
(0.00109387 0.00035176 -9.62278e-21)
(0.00121916 0.000418858 -2.48623e-16)
(-0.00115961 0.000451977 2.91594e-16)
(0.00117745 0.000438788 0)
(0.00106915 0.00071915 -1.77127e-16)
(0.00114616 0.000339768 -9.48481e-17)
(0.0011297 0.000409214 -1.78767e-16)
(-0.00117201 0.000379678 -9.12342e-17)
(-0.00115461 0.000480253 1.95447e-16)
(0.00112505 0.000445004 0)
(0.00121277 0.00037569 0)
(-0.000407023 0.000182336 -2.17177e-16)
(-0.00122633 0.000514987 1.19564e-16)
(-0.00118639 0.000367873 0)
(-0.00115759 0.000424045 0)
(0.00121083 0.000394097 0)
(-0.00115729 0.000446284 1.91973e-21)
(-0.00116549 0.000501523 9.36785e-17)
(-0.00118638 0.000387385 -9.37996e-17)
(0.00116195 0.000461533 3.98317e-21)
(-0.00116655 0.000438838 0)
(0.00104773 0.000442184 0)
(0.00106965 0.00138859 -1.16374e-17)
(-0.00123899 0.000521754 2.29077e-16)
(0.00117034 0.000421788 0)
(0.00102048 0.000517844 2.1459e-16)
(0.00109658 0.000465841 2.1794e-16)
(-0.00123795 0.000510035 1.14319e-16)
(-0.000146431 0.00156219 -7.04868e-21)
(-0.00112114 0.000463202 1.75078e-16)
(-0.00116989 0.000409776 1.91951e-16)
(0.00107196 0.000410846 0)
(-0.00116092 0.000437179 3.00572e-16)
(-0.00115294 0.000537731 -9.52171e-17)
(0.00115003 0.00044589 0)
(-0.00115796 0.000451051 0)
(0.000985931 0.000423027 3.43571e-16)
(0.00113588 0.000504989 0)
(0.00112354 0.000409599 0)
(0.00117295 0.000565565 2.5847e-17)
(0.00114087 0.000404421 0)
(0.0011537 0.000488319 -3.67873e-16)
(-0.00112422 0.000534481 0)
(-0.00112018 0.000528685 -1.80867e-16)
(-0.00111957 0.000527257 2.70924e-16)
(-0.00110562 0.000517568 8.88777e-17)
(0.00157814 0.000914403 1.48758e-16)
(-0.0003572 0.00165405 0)
(0.00114478 0.000520671 2.13764e-16)
(-0.00116904 0.000423089 -1.94081e-16)
(0.000906487 0.000484831 -1.90309e-16)
(-0.00117644 0.000379956 0)
(0.00104156 0.000404249 -1.76632e-16)
(0.00113205 0.00039777 -2.98059e-18)
(-0.00115491 0.000447725 9.32583e-17)
(-0.000256862 0.00179384 -1.77908e-16)
(-0.000568213 0.00155402 1.11841e-17)
(0.000767798 0.00040257 0)
(0.0011587 0.000498836 0)
(0.00125458 0.000443479 0)
(0.00115332 0.000484554 5.94181e-21)
(-0.00116707 0.000410601 0)
(0.00112817 0.000425271 0)
(-0.00113312 0.000523108 -1.40089e-16)
(-0.00112157 0.000516017 1.83785e-16)
(2.94471e-05 0.00155349 -1.84693e-16)
(-0.00109218 0.000419137 1.99299e-16)
(-0.00111513 0.00052439 -4.53594e-17)
(0.00115259 0.000479821 1.95365e-16)
(0.00121414 0.000422787 -6.15118e-17)
(-0.00115125 0.000448527 1.8547e-16)
(0.00118415 0.000514831 0)
(-0.00112445 0.000527302 0)
(-0.00116056 0.000438017 0)
(-0.00117339 0.000448515 -1.08727e-16)
(0.00112286 0.000403711 -1.93044e-16)
(0.00107144 0.000450512 3.75906e-21)
(-0.00115729 0.000450769 0)
(-0.00116137 0.000422086 9.83244e-17)
(-0.000714637 0.0014183 0)
(0.000976965 0.000596622 0)
(0.000175472 0.00171803 8.61749e-17)
(0.00109118 0.000440575 5.74629e-17)
(-0.00113182 0.000510326 0)
(-0.00112669 0.00052018 0)
(-0.00112642 0.000516473 1.88218e-16)
(-0.00113069 0.000514394 -1.86174e-16)
(-0.00117419 0.000386754 2.9777e-16)
(-0.000114894 0.000292319 5.13888e-17)
(-0.00119031 0.000459008 -5.90066e-17)
(-0.00110984 0.000517128 6.23704e-17)
(0.00112993 0.000446729 2.23736e-17)
(-0.00116507 0.000414156 -9.62587e-17)
(-0.000318416 0.00116452 -1.01156e-16)
(-0.00115176 0.000551279 1.89327e-16)
(-0.00116767 0.000416972 1.92817e-16)
(0.0013419 0.00089681 0)
(-0.0001301 0.00117011 0)
(-0.00121397 0.000501449 6.093e-21)
(0.00110163 0.000438304 2.04396e-16)
(0.00115984 0.000478928 -1.0565e-16)
(-0.00112329 0.000515664 1.81889e-16)
(0.0010056 0.000373017 -1.31318e-16)
(0.000200248 0.00013516 1.07918e-16)
(-0.00112699 0.000516863 -3.65589e-16)
(1.76288e-05 0.0015428 0)
(-0.00132539 0.000475997 -3.6679e-17)
(-0.00113523 0.000513433 -2.11763e-16)
(-0.0011315 0.000514347 1.9002e-16)
(-0.000402064 0.00020295 2.17219e-16)
(-0.00116034 0.000424805 0)
(0.00122593 0.000261178 1.23013e-16)
(-0.0011262 0.00051346 -9.37851e-17)
(-0.00115317 0.00044766 -1.00073e-16)
(0.0011622 0.000421461 0)
(-0.00112788 0.000515645 0)
(-0.000782275 0.0017108 1.37277e-16)
(-0.00119699 0.000404712 -1.83738e-16)
(0.00112601 0.000388577 0)
(0.001175 0.00053951 2.3718e-16)
(0.0011246 0.000448132 1.23125e-17)
(-0.000233495 0.00125506 2.58442e-16)
(-0.00116134 0.00043902 0)
(0.0010951 0.000465477 1.98133e-16)
(0.00113627 0.000431863 -2.63563e-16)
(-0.00116275 0.000421036 1.94298e-16)
(0.00120096 0.000571613 0)
(0.000192016 0.000131985 -1.10465e-16)
(-0.00125804 0.00052572 -2.44031e-22)
(-0.000205578 0.00159363 9.63411e-17)
(0.00112809 0.000424395 0)
(-0.00117187 0.000392275 -2.99177e-16)
(0.00104548 0.000593424 3.93347e-16)
(0.00102629 0.000597744 -9.12444e-17)
(0.00113887 0.000446231 -1.32951e-17)
(0.00114173 0.00038556 -1.26248e-16)
(0.00114181 0.000451436 1.94438e-16)
(0.00115007 0.000424132 0)
(-0.00127428 0.000386883 1.43579e-16)
(-0.00120279 0.000392087 -1.87092e-16)
(-0.0011364 0.000505035 -7.472e-19)
(0.00107953 0.000520147 0)
(0.00105834 0.000461265 2.14672e-16)
(0.000366111 0.000131208 2.31986e-16)
(-0.00115411 0.000430306 1.95535e-16)
(-0.0011246 0.000512339 2.07964e-16)
(-0.00115085 0.000521627 0)
(-0.000710966 0.00166968 1.96763e-16)
(-0.00116527 0.000423677 5.91062e-21)
(0.00107618 0.000401776 1.14695e-16)
(-0.00115924 0.000427004 0)
(-0.00113237 0.000512666 -1.18783e-17)
(-0.00113121 0.000516031 0)
(-0.0011304 0.000515407 -1.85913e-16)
(-0.00116458 0.000452288 0)
(-0.00015772 0.00171384 -1.19593e-16)
(0.000765436 0.000427662 -3.4456e-16)
(0.00112292 0.00056997 1.25597e-16)
(-0.00116241 0.000424545 9.79715e-17)
(0.0011105 0.000438575 0)
(0.00118689 0.00055924 -1.26567e-16)
(-0.000195672 0.001692 -1.90455e-16)
(0.000698233 0.000234806 -2.23907e-16)
(0.00112533 0.000461245 0)
(0.0011522 0.000507802 0)
(0.00111688 0.000475048 -1.87617e-16)
(-0.00116992 0.000398661 0)
(-0.0011544 0.000440634 1.96571e-16)
(-0.000286327 0.00186258 -6.17609e-18)
(-0.00122454 0.000524398 -1.01492e-16)
(-0.00107214 0.00041222 6.10881e-17)
(0.00110488 0.000428216 3.89325e-16)
(-0.000823291 0.00253655 -1.46078e-16)
(0.00188985 0.000744372 -1.97878e-16)
(0.00107229 0.00048645 -2.12586e-16)
(-0.00114688 0.00044454 9.6431e-17)
(-0.00114786 0.000534827 -1.21774e-17)
(-0.00112223 0.000520008 -1.89496e-16)
(0.00112234 0.000428218 2.0979e-16)
(-0.00115206 0.000434535 0)
(-0.0011595 0.000428053 9.90854e-17)
(-0.00132384 0.000472172 1.5096e-16)
(-0.001164 0.000551906 0)
(-0.00114698 0.000524179 0)
(0.00119068 0.000548714 -1.23284e-16)
(0.00106584 0.00041177 0)
(-0.00115929 0.000438107 0)
(0.0010811 0.000405178 0)
(-0.00113221 0.000514735 1.18324e-17)
(-0.00114523 0.000509163 7.5474e-19)
(0.00104964 0.000349164 0)
(0.00113575 0.000426786 1.92891e-16)
(-1.82347e-05 0.00155332 0)
(0.0011257 0.000374513 0)
(-0.00116386 0.000427252 4.92541e-17)
(-0.00117041 0.000418721 -3.01486e-16)
(0.000117637 0.00068884 0)
(-0.00115115 0.000443068 -1.93419e-16)
(-0.00120202 0.00026729 9.23825e-17)
(-0.00120748 0.000472335 -4.3174e-21)
(-0.00123826 0.000417696 -2.43398e-16)
(-0.00132457 0.000462623 1.51162e-16)
(-0.00113446 0.000535967 0)
(-0.00117178 0.000405195 2.02117e-16)
(-0.00115035 0.000441962 1.00296e-16)
(0.00113154 0.000427039 0)
(-0.00113932 0.000394212 1.62547e-16)
(-0.0011552 0.000431696 -2.68741e-16)
(6.01189e-06 0.00150873 0)
(-0.00112724 0.000510408 -2.80439e-16)
(-0.00116482 0.00047843 0)
(-0.00116329 0.000433063 0)
(0.00115091 0.000424047 2.03119e-16)
(-0.00115919 0.000424199 1.01385e-16)
(0.00100888 0.000365876 2.14783e-16)
(0.00114897 0.000462808 -2.03933e-16)
(-0.000814833 0.000394895 0)
(-0.00122968 0.000413166 0)
(-0.00115181 0.00044326 0)
(0.00112767 0.000438579 -2.1271e-16)
(0.00114339 0.000489594 0)
(0.0011377 0.000433025 0)
(-0.00123458 0.000535504 -2.99365e-16)
(0.000165184 0.00152522 2.17987e-16)
(-0.00113959 0.000530634 1.9228e-16)
(0.00117299 0.00036069 -2.1559e-16)
(-1.80093e-05 0.000806715 -6.19435e-17)
(-0.0011582 0.000451646 0)
(-0.00115478 0.000490209 2.99757e-16)
(-0.00110664 0.000521593 -1.80341e-16)
(0.000115907 0.00118158 1.08288e-16)
(0.00119889 0.00024632 0)
(0.00124033 0.000323353 1.14708e-16)
(0.00108919 0.000463518 1.77802e-16)
(-0.000232897 0.000176768 2.10734e-16)
(-0.00115464 0.000428437 -9.03937e-17)
(0.00113781 0.000450198 0)
(0.00070636 0.000265839 0)
(0.000973764 0.000298991 3.86492e-16)
(-0.00115319 0.000444222 0)
(0.00119672 0.000386416 -1.0723e-16)
(-0.00123441 0.000322101 1.26095e-16)
(-0.00116112 0.00044226 9.58126e-17)
(0.00109966 0.000440561 -1.95168e-16)
(-0.00130413 0.00049028 -1.35981e-16)
(-0.00108817 0.000456627 1.849e-16)
(-0.00126303 0.000581357 1.01009e-16)
(-0.000862658 0.000339503 -1.08943e-16)
(-0.00116363 0.000439389 0)
(-0.00115879 0.000440672 0)
(-7.53583e-05 0.000580613 0)
(2.68067e-06 0.00150539 -2.50982e-16)
(-0.00123503 0.000434074 0)
(-0.00116895 0.000574651 -8.72309e-17)
(0.00112283 0.000433745 3.76166e-16)
(0.00107817 0.000457305 -1.11176e-16)
(0.00112359 0.0004009 3.79531e-16)
(0.00113759 0.000476629 -5.49158e-17)
(0.00113028 0.000429109 -5.54989e-21)
(-0.00114817 0.000462852 -4.91293e-17)
(-0.00115137 0.000448298 -9.63674e-17)
(-9.41186e-05 0.00177924 5.97394e-18)
(-0.0011554 0.000445363 -1.95298e-16)
(-0.00114782 0.000480165 -5.15034e-17)
(0.00107768 0.000467826 0)
(-0.00115823 0.000444847 -9.75876e-17)
(-0.00123144 0.000456626 -3.58923e-16)
(-0.0011265 0.00050654 -1.39395e-17)
(-0.00116401 0.000435226 0)
(-0.00117401 0.000380738 4.83499e-17)
(-0.00115801 0.00042875 -9.87674e-17)
(0.00122824 0.000541121 -2.08724e-16)
(-0.00114924 0.000455771 -9.94723e-17)
(0.000158408 0.00171471 6.96555e-18)
(0.00110231 0.000401258 2.44313e-17)
(-3.28598e-05 0.00169054 -1.98861e-16)
(-0.00128243 0.000528644 2.82353e-16)
(-0.00111805 0.00037763 -3.98531e-16)
(0.00112878 0.000435722 1.03054e-16)
(-0.00128428 0.00052909 1.25937e-16)
(0.000170083 0.000882682 8.11334e-17)
(-0.00114593 0.000454133 1.97981e-16)
(0.00109688 0.000376037 1.76672e-16)
(-1.258e-05 0.00165901 0)
(-3.089e-05 0.00147302 -2.83927e-16)
(-0.00115006 0.00047539 -1.57229e-16)
(0.00111309 0.000379646 -5.19587e-17)
(-1.30302e-05 0.00165462 7.90277e-19)
(0.00135286 0.00053812 9.76714e-17)
(-0.00106462 0.000425996 2.95299e-16)
(-0.00116162 0.000441315 -5.09888e-17)
(-0.00117527 0.000416814 0)
(-0.00120474 0.000441674 2.29033e-16)
(0.00111478 0.000450452 -2.02297e-16)
(-0.00115165 0.000449327 -9.68018e-17)
(0.00111288 0.000439933 0)
(-2.67006e-06 0.00164555 -2.01873e-16)
(-0.00122574 0.000469978 1.2077e-16)
(0.00129561 0.001162 -3.66329e-16)
(0.00114401 0.000435423 0)
(-7.36171e-06 0.0016458 0)
(0.00117447 0.000471147 5.94903e-21)
(4.8086e-06 0.00164106 -2.02111e-16)
(2.59934e-06 0.0016451 4.01905e-16)
(-0.00114816 0.000450605 4.98495e-17)
(-0.0001025 0.00169463 1.97709e-16)
(-4.3973e-06 0.00163979 0)
(-1.06192e-05 0.00164757 2.01157e-16)
(-0.00114929 0.000448084 0)
(0.00132319 0.00073932 0)
(5.32146e-06 0.00164327 0)
(-2.57117e-06 0.00164304 -2.0144e-16)
(-0.00114563 0.000470043 0)
(-5.84339e-06 0.00164426 4.05274e-16)
(-0.00115913 0.000439033 0)
(-2.42972e-06 0.00164408 -2.0242e-16)
(-0.00115035 0.000448143 -2.93184e-16)
(-2.91911e-06 0.00163872 0)
(-0.00113895 0.00047239 9.67031e-17)
(-0.000518696 0.00188059 -4.71369e-17)
(0.00120376 0.000538631 2.50259e-16)
(0.00122897 0.000461991 0)
(3.29548e-07 0.00164271 1.45293e-20)
(-6.43566e-06 0.00164521 -1.9939e-16)
(-0.00116887 0.000386315 -8.51752e-17)
(0.00110017 0.00049312 -2.05744e-16)
(0.00099579 0.000404146 0)
(0.00112289 0.000431084 3.10264e-16)
(-1.2279e-06 0.00164331 2.02e-16)
(-0.00114608 0.000449853 0)
(-4.04281e-05 0.0016616 2.00564e-16)
(-1.16828e-06 0.00163958 0)
(-2.83141e-06 0.00164209 -2.04881e-16)
(-0.00115445 0.000449932 0)
(0.00113114 0.000482849 1.95267e-16)
(-0.00115831 0.000443078 2.68319e-21)
(4.22981e-07 0.00163911 2.02886e-16)
(0.00114714 0.000420403 -4.19351e-16)
(0.000170722 0.000976388 0)
(-5.92336e-06 0.00164506 0)
(0.00127335 0.000588382 1.46625e-16)
(0.00112294 0.000392094 0)
(-0.000128844 0.00176299 0)
(-0.00115719 0.000438035 -3.52291e-16)
(-4.41361e-05 0.00168319 0)
(-0.00115129 0.000448605 9.75575e-17)
(-0.000976512 0.000833855 -5.25377e-17)
(-0.001146 0.000470387 2.01113e-16)
(4.0288e-07 0.00164023 -4.04626e-16)
(-0.00117695 0.000430254 5.41574e-17)
(-0.00113819 0.000472359 1.92964e-16)
(-2.02336e-06 0.00164136 0)
(-4.04126e-06 0.00163889 -1.9825e-16)
(0.00106391 0.0003609 0)
(5.18808e-07 0.00164245 -2.04207e-16)
(1.00911e-06 0.00164098 0)
(-7.6991e-05 0.00170648 2.01276e-16)
(3.8371e-06 0.00147968 -2.27205e-16)
(-0.001118 0.000478048 1.17407e-16)
(-2.37891e-05 0.00166452 9.81733e-20)
(0.000816897 0.000239799 0)
(-0.00118237 0.000432803 7.99853e-17)
(-0.00111554 0.000477252 4.68855e-17)
(3.4649e-06 0.00163819 4.05016e-16)
(-6.52617e-06 0.0016443 2.01602e-16)
(-0.00117572 0.000451306 -4.66e-16)
(1.038e-06 0.00164084 2.02684e-16)
(0.00104018 0.000332122 6.71381e-21)
(-8.41899e-06 0.00164116 2.00602e-16)
(-0.00116218 0.000441539 0)
(-0.00114474 0.000459745 5.12181e-17)
(-8.91164e-07 0.00164165 -1.4596e-20)
(0.00111639 0.000552802 2.10082e-16)
(-0.00115571 0.000450803 -1.02841e-16)
(-0.00113984 0.000470136 -8.98998e-17)
(-4.06593e-06 0.00164358 -2.01525e-16)
(0.00112276 0.000440269 3.51595e-18)
(-2.43312e-07 0.00164231 -1.46e-20)
(-0.00116545 0.000440137 4.80865e-17)
(5.30976e-06 0.00163939 0)
(-0.00115842 0.000437799 0)
(-9.5479e-06 0.00164361 -2.01467e-16)
(8.29699e-07 0.00164197 2.02266e-16)
(0.0011211 0.00046624 -2.4528e-17)
(-0.001181 0.000404926 2.19721e-16)
(-8.67042e-06 0.0016414 1.99772e-16)
(2.05202e-06 0.00163916 0)
(-0.00114796 0.000466174 0)
(-0.00114273 0.000470148 1.53403e-16)
(-0.00117972 0.000375898 0)
(-6.05161e-05 0.00101418 -1.08309e-16)
(-3.1019e-07 0.00164217 2.0271e-16)
(-0.00114003 0.000468668 -1.45372e-16)
(-0.00114958 0.000449786 0)
(-0.00114419 0.000435561 5.30128e-17)
(-1.53824e-05 0.00164702 1.97007e-16)
(9.24667e-08 0.00163977 -1.46734e-20)
(-0.00115232 0.000440511 -5.14128e-17)
(0.0006677 8.04249e-05 -2.18993e-16)
(-1.46276e-05 0.00165063 -2.00426e-16)
(-4.70665e-06 0.00164402 2.02105e-16)
(2.32311e-06 0.00163994 2.02982e-16)
(-1.97115e-07 0.00164526 -2.00156e-16)
(0.00136972 0.000694852 -1.92048e-16)
(-9.79293e-06 0.00164142 -2.01109e-16)
(-0.00116069 0.000437807 0)
(-0.0011356 0.000420638 0)
(0.00109202 0.000422451 0)
(-2.5223e-06 0.00163964 -2.03571e-16)
(-0.00113847 0.000471844 2.48142e-16)
(0.001114 0.000414128 -1.57151e-16)
(-0.00110068 0.000446275 2.71354e-16)
(-0.00115149 0.000447682 -1.96916e-16)
(-0.00115327 0.000445772 -1.01263e-16)
(-0.00124347 0.000585314 -1.00454e-16)
(-4.79966e-06 0.00164044 -4.05794e-16)
(4.4966e-06 0.00163977 8.46293e-20)
(-0.00115735 0.000478167 -5.80048e-17)
(-0.00115406 0.000462801 4.59959e-17)
(-0.00115371 0.000448335 -5.05268e-17)
(6.60572e-06 0.00164177 -2.02617e-16)
(1.38677e-06 0.00163974 4.10227e-16)
(-8.06711e-06 0.00164151 -2.02962e-16)
(1.40131e-06 0.00164149 -7.95369e-19)
(-0.00115079 0.000456133 4.91295e-17)
(-5.65765e-06 0.00164049 0)
(7.86243e-06 0.00164095 -2.03784e-16)
(5.33865e-06 0.00163918 2.02751e-16)
(6.78378e-06 0.00164186 3.50532e-20)
(-0.00115468 0.000435514 1.02069e-16)
(-9.2403e-06 0.0016506 0)
(-0.0011559 0.000439578 -2.00616e-16)
(-0.00118564 0.00042856 0)
(0.00113061 0.000432865 -2.22459e-16)
(-6.57579e-07 0.00164076 -1.57905e-18)
(0.00108041 0.000433723 1.97903e-16)
(1.04133e-06 0.00164076 -1.4534e-20)
(-0.000100033 0.00168392 0)
(-6.69249e-05 0.00166265 -1.99272e-16)
(-0.00115562 0.000441023 0)
(-0.00116495 0.00043953 -9.86563e-17)
(1.126e-05 0.00163948 0)
(-0.00114658 0.000444246 -2.14074e-16)
(-0.00115239 0.000451466 -1.06354e-16)
(0.00112475 0.00044787 2.13742e-16)
(6.35999e-07 0.00164023 -2.03084e-16)
(-9.41666e-06 0.00164156 -2.0316e-16)
(-0.0011579 0.000459067 5.55538e-17)
(-1.79185e-06 0.00164093 -2.00307e-16)
(-0.00114209 0.00043379 3.11586e-16)
(-7.64678e-06 0.00164017 -2.02291e-16)
(2.33948e-06 0.00164109 -1.45604e-20)
(-0.00114799 0.000492106 -2.3656e-16)
(-1.03209e-05 0.00164125 2.0063e-16)
(0.00113269 0.000428182 0)
(-0.00115064 0.000450125 -5.02512e-17)
(-5.89296e-07 0.00164041 3.18892e-18)
(-0.0011584 0.000433441 1.00775e-16)
(-2.83747e-07 0.00163994 -1.60074e-18)
(-0.00115096 0.000441939 5.04605e-17)
(-0.00109004 0.000404007 0)
(4.33643e-06 0.00164115 -1.46329e-20)
(-0.00125543 0.000529648 3.00917e-16)
(9.95152e-07 0.00164197 2.04471e-16)
(0.00104727 0.000526831 -5.87776e-17)
(-0.00110749 0.000489995 1.95206e-16)
(-3.56937e-07 0.00164093 2.04616e-16)
(0.000838643 0.000330926 2.15027e-16)
(-2.14244e-06 0.00164099 2.03321e-16)
(1.29844e-06 0.00164092 3.17271e-18)
(0.00096115 0.000351467 2.27233e-16)
(0.00103005 0.000363005 -2.12541e-16)
(0.0011715 0.000462464 0)
(-0.00123538 0.00050417 0)
(-9.49414e-06 0.00164114 -1.59108e-18)
(0.00106805 0.000405144 2.79971e-16)
(-9.20407e-06 0.00164022 -1.57973e-18)
(-0.00115347 0.00044672 -9.8243e-17)
(0.0010509 0.00035612 0)
(8.62622e-06 0.00164046 -4.05556e-16)
(1.41604e-06 0.0016406 -4.08071e-16)
(-0.00114748 0.000462799 0)
(-0.00115467 0.000434784 0)
(9.82153e-07 0.00164188 -4.05522e-16)
(-3.27605e-05 0.00165749 0)
(-0.00114488 0.000475237 -1.9548e-16)
(-2.20182e-05 0.00165002 -4.00516e-16)
(-0.00104881 0.000380351 0)
(0.001189 0.000374808 5.2485e-17)
(1.04702e-07 0.00163889 -1.60741e-18)
(3.7518e-06 0.00164237 2.04312e-16)
(0.000897557 0.000559522 -7.03679e-18)
(4.39797e-07 0.00164057 -2.04794e-16)
(-0.00116102 0.000427837 1.57438e-16)
(-0.0012315 0.000568513 1.38984e-16)
(-1.02072e-05 0.00164087 2.01869e-16)
(-0.00115804 0.000432982 1.45749e-16)
(-1.79512e-06 0.00164134 2.04815e-16)
(-9.51355e-06 0.00164042 -2.02607e-16)
(-1.07136e-05 0.00164064 -2.01909e-16)
(-0.00114307 0.000464954 0)
(-0.00115634 0.000434528 -4.98685e-17)
(-1.15843e-06 0.00164029 -7.98788e-19)
(9.78348e-06 0.00164096 0)
(-0.00114144 0.000464047 1.98689e-16)
(-0.00115147 0.000434607 0)
(1.4865e-06 0.00164051 -2.03403e-16)
(-7.97022e-06 0.00164587 3.16233e-18)
(0.00112285 0.000436177 -2.14736e-16)
(1.49301e-06 0.00164077 -4.10855e-16)
(-0.00124032 0.000484688 3.41578e-16)
(-6.08233e-07 0.00164071 0)
(-5.18013e-07 0.00164117 2.02762e-16)
(-3.20348e-07 0.00164089 0)
(-5.31746e-08 0.00164075 2.02822e-16)
(1.21825e-06 0.00164048 -2.02309e-16)
(0.000956076 0.000375293 1.21378e-16)
(4.36897e-07 0.00164018 2.02451e-16)
(7.58138e-07 0.00164389 -1.4658e-20)
(-1.42498e-08 0.00164068 2.04804e-16)
(-1.11167e-05 0.00164093 4.0465e-16)
(-0.00115642 0.00044202 0)
(-0.00115568 0.000445281 -5.25279e-17)
(-9.68545e-06 0.00164063 0)
(-2.21187e-07 0.00164077 0)
(-1.13162e-06 0.00164009 -2.06614e-16)
(9.79209e-06 0.00164144 2.031e-16)
(8.10132e-06 0.00164148 2.03865e-16)
(-0.00115298 0.000449444 2.57698e-16)
(8.72977e-06 0.0016407 2.03297e-16)
(-6.30648e-07 0.00164112 -2.04795e-16)
(-1.56662e-06 0.00164083 0)
(-4.33563e-07 0.00164069 -1.47067e-20)
(-0.0011556 0.000445171 1.00377e-16)
(9.69868e-06 0.00164089 0)
(9.17072e-06 0.00164034 2.03438e-16)
(-3.87253e-06 0.00164388 -2.05259e-16)
(-0.00116106 0.000432919 0)
(-1.15357e-08 0.00164073 0)
(0.00113338 0.00043621 -2.13233e-16)
(-1.94811e-07 0.00164184 1.5988e-18)
(-1.58858e-07 0.00164221 -3.98542e-19)
(-7.89701e-06 0.00163934 -7.92074e-19)
(-1.07679e-05 0.00164044 1.46022e-20)
(-8.66398e-06 0.00163976 7.92722e-19)
(-0.0011573 0.000507085 -1.24097e-16)
(-1.03594e-05 0.00163963 2.03612e-16)
(5.49655e-06 0.00164061 0)
(-1.01585e-05 0.00163986 2.02165e-16)
(-1.02971e-05 0.00164019 -2.0251e-16)
(-1.08566e-05 0.00164087 -2.03451e-16)
(-0.00139396 0.00114058 -3.08466e-16)
(-0.000265527 0.000328258 -3.84299e-16)
(1.00023e-05 0.00164109 -2.03716e-16)
(-9.88163e-07 0.00164077 -2.03074e-16)
(1.15663e-07 0.00164114 -2.03028e-16)
(8.99093e-06 0.00164032 2.035e-16)
(-0.00116147 0.000438135 -2.02475e-16)
(-1.15302e-05 0.00164011 2.02142e-16)
(-9.70739e-07 0.00164098 -2.02692e-16)
(-7.52549e-06 0.00164412 -4.03171e-16)
(-8.51075e-07 0.00164046 -1.60331e-18)
(1.0686e-05 0.00164043 2.0273e-16)
(0.00112456 0.000431239 2.13267e-16)
(-3.4899e-06 0.0016415 -2.02731e-16)
(6.44318e-07 0.00164069 -1.45906e-20)
(0.00119836 0.000494255 -2.63008e-16)
(-3.51964e-07 0.00164063 0)
(-7.22656e-07 0.00164068 0)
(-1.14838e-05 0.00164044 -4.06257e-16)
(-0.00115566 0.000443466 1.00717e-16)
(2.15474e-07 0.00163972 -4.00497e-19)
(-1.33129e-05 0.00164098 2.12281e-19)
(0.00113095 0.000423716 1.41757e-17)
(-1.22421e-05 0.00164177 2.03077e-16)
(1.2123e-05 0.00164104 2.0305e-16)
(1.11078e-05 0.00164075 -2.02903e-16)
(2.77225e-06 0.00164061 -2.03473e-16)
(-1.30168e-05 0.00164113 1.45953e-20)
(-0.00120051 0.000425456 -2.15476e-16)
(-0.000981676 0.000377337 2.6548e-16)
(-1.17879e-06 0.00163909 -1.46751e-20)
(-7.34188e-07 0.0016407 -2.02592e-16)
(-0.00114547 0.000465577 5.11241e-17)
(1.0422e-06 0.00164063 -1.4707e-20)
(-1.20055e-05 0.0016399 8.05157e-19)
(1.2053e-05 0.00164044 -4.06046e-16)
(5.4799e-06 0.0016389 2.03835e-16)
(1.02301e-05 0.0016401 -2.03833e-16)
(1.00641e-05 0.00164045 -2.03828e-16)
(1.20371e-05 0.00164066 2.03127e-16)
(1.00217e-05 0.00164021 1.98681e-19)
(1.19468e-05 0.00164071 0)
(0.00113338 0.000428555 0)
(-9.72483e-06 0.00164082 2.0449e-16)
(-7.84184e-07 0.00164254 0)
(2.16813e-06 0.0016419 2.03739e-16)
(1.19725e-05 0.00164065 0)
(1.19207e-05 0.0016408 2.03196e-16)
(1.20799e-05 0.00164052 -9.91922e-20)
(1.28536e-06 0.00164194 1.99365e-16)
(1.08491e-05 0.00164136 0)
(-3.0653e-06 0.00164233 0)
(-1.00917e-05 0.00164207 -2.04711e-16)
(-0.001153 0.000445772 -2.47201e-21)
(1.06383e-05 0.00164061 0)
(-2.42696e-05 0.00166867 0)
(1.04584e-05 0.00164064 0)
(-0.0011276 0.000430046 1.57171e-16)
(8.32778e-07 0.00164087 -2.02844e-16)
(-7.50683e-06 0.00164415 2.04683e-16)
(1.09356e-05 0.0016416 -9.94058e-20)
(-0.00112922 0.000472926 5.56771e-17)
(-0.00114673 0.000466203 -5.08324e-17)
(9.57439e-06 0.00164129 -2.03822e-16)
(-2.8452e-06 0.00163813 0)
(-4.04464e-07 0.00164355 -2.03902e-16)
(9.69636e-06 0.00164141 1.46477e-20)
(1.20371e-05 0.00164044 -2.03662e-16)
(-1.2274e-06 0.00163698 4.05045e-16)
(0.00109416 0.000369733 -3.65598e-16)
(0.00113098 0.000438281 -4.30923e-16)
(-1.65367e-06 0.00164124 4.07255e-16)
(0.0011161 0.000439748 0)
(9.46994e-06 0.00164141 0)
(1.22252e-05 0.0016402 -3.97001e-19)
(-0.00117715 0.000466057 -1.84024e-16)
(-0.00115101 0.000471155 1.05906e-16)
(7.57342e-07 0.00164004 -1.00205e-19)
(9.56104e-06 0.00164155 2.03873e-16)
(1.02094e-06 0.0016407 -2.03132e-16)
(-0.00105222 0.00100614 1.02778e-16)
(9.05173e-06 0.00164136 7.96855e-19)
(-1.1728e-05 0.00164161 2.03304e-16)
(-9.60366e-07 0.00164294 2.04074e-16)
(-0.00131449 0.00067291 -2.01502e-16)
(9.35216e-06 0.00164189 0)
(-6.71932e-07 0.00164088 4.01578e-19)
(-2.50339e-06 0.00164244 -2.03107e-16)
(-0.00115649 0.000438488 0)
(0.00116919 0.000322628 3.85789e-16)
(-0.00113898 0.000474314 5.36684e-17)
(8.94463e-06 0.00164153 -7.96986e-19)
(1.25447e-06 0.00164124 -2.03832e-16)
(-1.04383e-05 0.00163974 -2.03659e-16)
(-0.00115096 0.000462358 3.04099e-16)
(8.98306e-06 0.00164208 -2.04092e-16)
(-1.37275e-05 0.00164034 7.93029e-19)
(7.20283e-07 0.00164001 2.00593e-19)
(1.11428e-05 0.00164037 0)
(-3.86642e-07 0.00164325 0)
(1.12881e-05 0.00164024 0)
(1.17513e-06 0.00164126 0)
(-0.00115285 0.000438364 -5.05811e-17)
(-1.23011e-05 0.00163975 0)
(-8.06011e-07 0.00164079 0)
(0.00121824 0.000570296 1.57511e-16)
(7.91388e-07 0.00164128 0)
(-6.64493e-05 0.00170804 0)
(-3.28353e-07 0.00164322 4.08014e-16)
(6.05216e-07 0.00164002 0)
(0.00112283 0.000412461 -4.8115e-17)
(0.0011298 0.000438754 0)
(0.00100901 0.000504458 1.05925e-16)
(0.00110724 0.000398952 -2.06201e-16)
(1.28478e-06 0.00164151 -4.07229e-16)
(-0.00104073 0.000452414 0)
(5.05256e-07 0.00164132 -1.99183e-19)
(-0.001145 0.000463325 -9.91591e-17)
(1.255e-05 0.00164048 0)
(0.000559436 0.000640057 0)
(1.98763e-07 0.00164084 -4.02036e-19)
(8.97471e-07 0.00164507 -1.26936e-17)
(0.000423192 0.00100721 -7.05272e-18)
(1.11319e-05 0.00163949 0)
(1.32991e-06 0.00164078 0)
(-0.00115036 0.00045317 0)
(-5.20802e-07 0.00164068 4.06415e-16)
(-4.62487e-07 0.00164107 0)
(0.00112715 0.00043252 3.89477e-21)
(0.000318409 0.000946492 0)
(-5.75339e-08 0.00164097 4.14451e-19)
(-1.37737e-07 0.00164181 -2.04148e-16)
(8.46117e-07 0.00164059 -2.03128e-16)
(7.21177e-07 0.00164011 -4.0271e-19)
(3.04843e-07 0.00164033 0)
(6.41058e-07 0.00164174 1.47231e-20)
(0.00115763 0.000404991 0)