/*--------------------------------*- C++ -*----------------------------------*\
  =========                 |
  \\      /  F ield         | OpenFOAM: The Open Source CFD Toolbox
   \\    /   O peration     | Website:  https://openfoam.org
    \\  /    A nd           | Version:  12
     \\/     M anipulation  |
\*---------------------------------------------------------------------------*/
FoamFile
{
    format      ascii;
    class       surfaceScalarField;
    location    "0.06";
    object      phi;
}
// * * * * * * * * * * * * * * * * * * * * * * * * * * * * * * * * * * * * * //

dimensions      [0 3 -1 0 0 0 0];

internalField   nonuniform List<scalar> 
6438
(
-9.8883e-09
1.21733e-06
-1.20744e-06
-1.08196e-08
1.414e-06
-1.40318e-06
-1.32358e-06
-2.22615e-07
1.54619e-06
1.25522e-06
-1.37723e-06
1.22011e-07
1.93409e-06
-1.50982e-06
-4.24267e-07
4.45773e-07
1.48831e-06
-1.49844e-06
1.74865e-07
-1.30676e-06
1.29594e-06
1.4093e-06
-1.68544e-06
2.76147e-07
1.31204e-06
-1.53622e-06
2.24176e-07
-1.2702e-06
1.54031e-06
-2.70107e-07
3.06505e-07
-1.39509e-06
1.08859e-06
-1.5646e-06
2.94393e-07
1.20526e-06
5.54895e-07
-1.76015e-06
1.13274e-06
-1.14263e-06
-6.26527e-08
1.32569e-06
-1.26303e-06
-1.6721e-06
1.62002e-06
5.20802e-08
-1.26645e-06
1.53464e-06
-2.68189e-07
-1.56182e-06
2.95372e-07
4.97057e-07
1.05473e-06
-1.55179e-06
-3.63488e-07
-2.37866e-07
6.01354e-07
-7.8084e-08
1.39166e-06
-1.31357e-06
-1.2872e-06
-2.10005e-07
1.4972e-06
-1.57372e-06
6.92369e-07
8.8135e-07
-1.37113e-06
1.29304e-06
-1.21741e-06
1.48188e-06
-2.64466e-07
-1.48069e-06
1.9349e-07
1.41064e-06
-1.10413e-06
-1.27991e-06
-2.35119e-07
1.51503e-06
-1.54291e-06
3.25502e-07
1.19067e-06
-1.48773e-06
2.97057e-07
6.34062e-09
-1.45272e-06
1.44638e-06
1.41966e-06
-1.42626e-06
6.60016e-09
-1.40678e-06
2.38193e-07
1.16859e-06
-1.90443e-06
3.076e-07
1.59683e-06
1.33711e-06
-1.33077e-06
1.34672e-06
-9.14949e-08
8.75293e-07
1.22417e-06
-2.09946e-06
-4.26475e-07
1.63173e-06
-1.25353e-06
1.37796e-06
-1.24436e-07
-1.45622e-06
1.44209e-06
1.41291e-08
-6.0682e-07
1.10388e-06
1.30127e-06
1.07731e-08
-1.56334e-06
1.53192e-06
3.14199e-08
1.40462e-06
-2.1395e-07
-1.04114e-06
9.78489e-07
-1.8162e-06
3.06383e-07
1.37812e-06
1.33453e-07
-1.51158e-06
-1.07767e-06
-3.29111e-07
-1.95597e-07
-1.29157e-06
1.46637e-06
-1.74799e-07
-9.6837e-07
1.39136e-06
-4.22992e-07
1.39458e-06
-1.39458e-06
4.36248e-07
1.05895e-06
1.39215e-07
-1.19816e-06
6.19871e-07
2.99118e-07
-9.1899e-07
1.18179e-06
2.42115e-07
-1.42391e-06
1.14077e-06
-4.48404e-07
-6.6135e-07
-1.15485e-06
-1.29929e-08
1.22877e-06
-1.21578e-06
-1.51736e-06
1.51736e-06
-1.56938e-06
1.58393e-06
-1.45507e-08
6.27344e-08
1.17007e-06
-1.2328e-06
4.43839e-09
-1.43281e-06
1.42837e-06
1.32912e-06
-1.32469e-06
-1.44846e-06
1.6855e-07
-1.45244e-06
-1.10909e-07
-1.24606e-06
1.36879e-06
-1.22733e-07
1.38232e-07
1.19559e-06
-1.33383e-06
-1.46805e-06
1.41208e-06
5.59764e-08
1.43162e-06
-1.43162e-06
1.33229e-06
7.70012e-08
-8.74064e-07
-6.62154e-07
1.24508e-06
2.64383e-07
-1.50946e-06
-1.22321e-06
-2.33008e-07
1.08593e-06
8.40937e-07
-1.92686e-06
-1.68302e-06
1.0762e-06
-1.07534e-06
-6.07674e-07
1.47372e-06
-2.28647e-07
8.82912e-07
-2.6304e-07
1.20049e-06
1.33867e-07
-1.33436e-06
-1.47929e-06
-9.00881e-08
-2.13302e-07
-3.60218e-07
-1.15714e-06
1.60367e-06
-1.60367e-06
-1.06239e-06
-4.05664e-07
-9.75141e-08
-1.80692e-06
-1.38322e-06
1.37865e-06
4.57143e-09
4.97945e-08
-1.40373e-06
1.35394e-06
-1.54224e-07
1.35471e-06
1.38515e-06
3.45059e-08
-1.44714e-06
-2.2496e-07
-1.46033e-06
1.49581e-06
-3.54857e-08
1.5278e-06
-8.54252e-07
-6.73553e-07
1.37002e-06
-1.32023e-06
2.88556e-08
1.5385e-06
-7.82591e-07
-7.55905e-07
8.72857e-07
6.54948e-07
1.40986e-06
-1.40986e-06
-1.08162e-06
1.54974e-06
-4.68121e-07
-1.35805e-06
6.64804e-08
-1.86252e-07
-1.09891e-06
1.28516e-06
-1.2735e-06
5.02825e-08
-1.36458e-06
2.82961e-07
1.17462e-06
2.56215e-07
-1.43084e-06
-8.79332e-08
1.26255e-06
-1.22941e-06
1.42003e-06
-1.90614e-07
-1.30325e-06
4.97278e-08
9.049e-07
6.33597e-07
1.35999e-06
-2.71404e-07
5.83178e-08
1.33626e-06
-1.17412e-06
-9.9372e-08
1.22602e-06
2.63209e-07
-1.48923e-06
-6.78343e-07
-5.86322e-07
1.26467e-06
8.93399e-07
-1.15838e-07
-7.77562e-07
-1.45272e-06
2.96538e-07
1.45127e-06
-1.74781e-06
-6.75616e-07
3.12128e-07
1.45144e-06
3.04363e-08
1.57861e-06
-8.17972e-07
-7.60641e-07
5.31529e-07
1.04708e-06
1.46239e-06
-2.3637e-07
1.7928e-06
-9.17508e-07
-1.32737e-06
5.3673e-09
1.322e-06
-1.90051e-06
1.91491e-07
1.70902e-06
-2.23377e-08
-1.32044e-06
1.34278e-06
1.45001e-06
8.19162e-08
-1.11994e-06
1.10695e-06
-1.33586e-06
1.36239e-06
-2.65279e-08
1.35361e-06
-1.37594e-06
1.397e-06
-1.397e-06
1.37289e-06
4.11036e-08
1.37679e-06
-3.17847e-07
1.35801e-06
-1.29528e-06
-1.19605e-06
1.00979e-06
1.28431e-08
1.31866e-06
-1.3315e-06
1.55504e-06
-1.08645e-06
-4.68584e-07
-1.43281e-06
-2.10983e-08
1.64441e-08
-1.3232e-06
-1.323e-06
7.6945e-08
1.4537e-08
1.32257e-06
1.28004e-06
-1.14181e-06
-1.3197e-06
9.02816e-08
1.33809e-06
-3.68165e-08
-4.85903e-08
1.16554e-06
-1.11695e-06
9.20882e-07
6.34155e-07
-1.37224e-06
2.96467e-07
1.07577e-06
1.39705e-06
-5.69277e-09
-1.85044e-06
1.6662e-07
1.68382e-06
-1.91297e-08
-1.3136e-06
1.33273e-06
8.72336e-07
2.10637e-08
8.41441e-08
1.31291e-06
1.30013e-06
1.1051e-07
1.34592e-06
-1.36505e-06
-1.40104e-06
-4.61016e-08
1.43202e-06
-1.54125e-06
1.09228e-07
-1.27765e-06
-4.97167e-08
-1.55602e-06
6.75046e-07
8.80976e-07
-9.96243e-10
1.34442e-06
4.72345e-08
-1.26725e-06
1.47318e-06
-2.05935e-07
-1.39098e-06
1.20097e-06
1.90009e-07
-1.89012e-07
4.87304e-07
-2.98292e-07
-4.37089e-07
-1.10582e-06
-1.40373e-06
-1.14363e-08
1.34056e-06
4.14378e-07
1.13536e-06
-2.2947e-08
-1.36427e-06
-6.85637e-09
-2.92814e-08
-1.49092e-06
1.25882e-06
2.32092e-07
-8.74349e-08
1.11279e-06
2.19504e-07
2.18005e-06
-9.55887e-07
-4.60011e-07
-1.10181e-06
1.36657e-06
1.85787e-08
-1.17035e-06
4.92004e-07
-5.29774e-07
-8.31014e-07
1.36079e-06
-4.70439e-07
-1.09416e-06
-7.62612e-07
1.84854e-06
-1.41109e-06
4.68211e-08
-1.33229e-06
1.33743e-06
-5.13498e-09
-1.09693e-06
1.04834e-06
-1.6226e-08
-1.30565e-06
1.32188e-06
-1.4361e-06
2.50025e-08
1.19636e-06
-1.42314e-06
2.26774e-07
1.3342e-06
-1.35042e-06
1.19049e-06
-4.49782e-07
-7.40712e-07
-1.80272e-06
6.4245e-07
1.16027e-06
1.22063e-06
1.17454e-07
1.00697e-06
6.13054e-07
2.94209e-07
1.30947e-06
-3.52565e-07
-1.25111e-06
-1.4546e-06
1.44139e-06
1.32131e-08
-1.45051e-06
-4.09492e-09
-1.4436e-06
-6.91139e-09
5.29395e-09
3.76131e-07
-2.10005e-06
1.72392e-06
-1.55634e-06
1.85288e-06
1.22939e-06
-1.21655e-06
1.31499e-06
5.50305e-08
1.07263e-07
1.08323e-06
-1.32044e-06
-1.19671e-06
1.19127e-06
1.47983e-07
-1.33925e-06
-6.7289e-09
-2.86111e-07
2.0949e-06
-1.80879e-06
1.98653e-06
-1.43164e-06
-6.03796e-07
9.02914e-07
-3.8392e-07
-1.1721e-06
-1.03885e-06
-7.63866e-07
-1.31917e-06
-8.18689e-08
-1.32979e-06
1.32961e-06
1.85378e-10
-2.09036e-07
1.24658e-06
-1.03755e-06
-1.42913e-06
1.43889e-06
-9.75609e-09
-1.41399e-06
-1.51494e-08
-1.81598e-06
1.15292e-07
1.70069e-06
-1.26668e-06
-8.22235e-08
1.3489e-06
1.42441e-06
1.44805e-08
-2.52866e-07
-1.554e-06
5.70324e-07
9.83681e-07
8.5604e-09
-8.22762e-07
-7.31243e-07
-1.91861e-08
-1.46832e-08
-1.2976e-06
1.31228e-06
-1.33309e-06
6.64138e-08
1.20466e-06
1.61915e-07
1.38788e-06
-1.32956e-06
1.32081e-06
-1.33549e-06
1.31575e-06
3.78522e-08
6.47414e-07
1.33912e-06
1.36072e-06
-2.47933e-07
-1.07834e-07
-1.79268e-06
-7.7336e-08
1.08429e-06
-1.00695e-06
-1.40739e-06
-6.59536e-09
-1.40711e-06
-2.80868e-10
1.41794e-06
-1.40751e-06
-1.04263e-08
1.40311e-06
1.48268e-08
-1.3136e-06
3.23718e-07
-4.43292e-07
1.19574e-07
-1.58808e-06
9.31226e-07
6.56855e-07
7.10118e-07
-1.42405e-06
7.13936e-07
-1.24288e-06
-1.15177e-07
-1.32532e-06
1.31877e-06
6.5507e-09
-1.37692e-06
1.32743e-06
4.94805e-08
-1.09949e-07
1.4093e-06
-1.29935e-06
-1.36733e-06
3.42355e-08
-1.5187e-06
1.89483e-06
-1.39628e-07
-1.23261e-06
-1.42765e-06
1.3177e-06
-1.11875e-06
-1.02351e-07
1.2211e-06
-1.04299e-06
1.39436e-06
8.74797e-09
-9.514e-07
-2.55086e-07
2.83052e-07
-2.79661e-08
-1.27446e-08
5.18032e-08
-1.81139e-06
1.75959e-06
-1.00929e-06
-4.89155e-07
-1.41226e-06
1.38447e-06
2.7787e-08
-1.39067e-06
-2.15893e-08
-4.9895e-07
3.09938e-07
1.31331e-06
3.26146e-08
1.39699e-06
-2.26919e-07
1.39004e-06
-1.38915e-06
-8.84576e-10
-3.61907e-09
-1.28742e-06
1.29104e-06
1.4561e-06
-1.04172e-06
-1.74736e-08
1.43839e-06
8.16372e-07
-2.25476e-06
1.42414e-06
-1.42414e-06
2.22987e-07
1.29437e-06
-5.02736e-07
-8.91844e-07
-1.13685e-06
1.37035e-06
-2.33501e-07
-1.48795e-07
-1.22812e-06
1.31401e-06
-1.31763e-06
-1.25663e-06
1.96016e-08
1.23703e-06
2.42027e-07
-1.27584e-06
1.03382e-06
-1.32126e-06
1.30711e-06
1.41565e-08
8.4599e-07
6.10111e-07
-4.08973e-08
-2.14188e-07
-7.95427e-07
-7.92654e-07
-3.08884e-07
-1.41026e-06
1.43011e-07
-1.30565e-06
1.1829e-06
2.49115e-07
-1.09547e-06
-1.23305e-06
1.14304e-07
-1.25861e-06
7.28837e-07
1.4284e-06
-1.16085e-06
-2.67552e-07
2.43006e-07
1.14487e-06
-1.00427e-06
-4.76422e-07
-1.39515e-06
1.39515e-06
1.3975e-06
-1.34437e-06
-5.31283e-08
7.95122e-08
-1.32239e-06
-1.1171e-06
1.2628e-06
-1.45704e-07
-4.41091e-07
2.03225e-07
1.30129e-06
-1.30776e-06
6.46563e-09
1.36991e-06
1.45683e-08
1.38221e-06
1.52901e-08
2.0858e-06
-1.33131e-06
-3.60157e-08
-1.16797e-06
9.58937e-07
1.31109e-06
2.31059e-08
1.37837e-06
-1.37136e-06
-7.00579e-09
-1.23034e-08
-1.92488e-08
1.44907e-07
-1.18196e-06
1.03706e-06
-4.03271e-08
-1.81011e-06
4.33129e-07
9.61209e-08
-1.21322e-06
-1.31771e-06
1.29739e-06
2.03177e-08
1.31351e-06
-1.17152e-07
-6.10876e-07
-8.1538e-07
-1.84245e-06
1.36313e-07
-7.40108e-07
-2.18992e-07
6.16436e-09
1.35352e-06
-1.20554e-06
-1.2976e-06
-1.29948e-06
3.41236e-08
1.26536e-06
1.83351e-06
2.6139e-07
1.05733e-06
5.26598e-07
1.2798e-06
-5.6968e-07
1.33454e-06
-7.57187e-08
3.07144e-06
-2.25507e-06
-2.10005e-06
-6.74321e-07
-7.16661e-07
-1.73036e-08
1.42488e-06
-1.33503e-06
-8.98462e-08
1.35157e-06
3.0642e-08
1.56512e-07
-1.29336e-06
-9.5904e-07
1.10395e-06
1.30904e-06
1.177e-08
1.02121e-06
4.52514e-07
1.37363e-06
5.12428e-08
1.37277e-06
-1.35318e-06
-1.95917e-08
-6.20273e-07
-8.67452e-07
-6.19049e-08
1.26288e-06
2.32324e-08
-1.45485e-06
1.138e-06
-8.9597e-07
-1.97972e-08
2.8398e-08
1.11182e-06
-1.20637e-06
9.45526e-08
2.0464e-07
1.16571e-06
1.86036e-06
-1.80856e-06
6.48498e-07
8.17874e-07
-1.31374e-06
1.29933e-06
1.44058e-08
-3.00248e-08
-7.65435e-07
4.20912e-07
3.44523e-07
-1.40415e-08
1.426e-06
-1.426e-06
1.61655e-06
-9.39088e-07
-6.7746e-07
-1.17589e-06
-2.01345e-07
9.91798e-07
4.70588e-07
1.36615e-06
7.4783e-09
-1.28742e-06
1.27719e-06
8.33023e-09
-1.28552e-06
1.04448e-06
1.45485e-06
-1.44638e-06
3.65163e-08
1.69881e-06
-1.50732e-06
1.31323e-06
-1.39371e-06
1.30692e-06
-2.97296e-08
1.17872e-06
-1.27722e-06
1.27091e-06
6.31374e-09
5.82443e-08
1.02537e-06
-1.08362e-06
-1.15994e-06
9.58791e-07
-8.64555e-08
1.21152e-06
1.66446e-07
-1.20163e-08
-1.12392e-06
-1.9578e-07
-1.68642e-06
1.06615e-06
3.63421e-09
-1.28128e-06
-1.36304e-06
-6.46008e-08
1.82291e-06
-9.81978e-07
1.29791e-08
-2.37094e-07
1.44979e-06
-1.2127e-06
-6.18752e-07
-1.46683e-07
1.27172e-06
-1.28496e-06
1.3235e-08
-1.31323e-06
1.30506e-06
5.66264e-07
8.06578e-07
-1.37284e-06
1.36237e-06
-2.50549e-07
1.11001e-07
1.21468e-06
1.34109e-06
1.32089e-07
1.45733e-07
1.77985e-07
-1.42837e-06
3.13675e-08
-1.13195e-06
1.28846e-06
-6.56447e-07
7.9276e-07
1.21102e-07
-1.18932e-06
1.06822e-06
-1.01712e-08
2.2398e-08
-1.18586e-06
-1.35193e-06
1.32665e-06
2.52818e-08
-1.29427e-06
1.33422e-07
8.4708e-07
7.69468e-07
-7.27547e-07
1.49158e-06
-7.64028e-07
1.49841e-06
-1.39857e-06
-9.98385e-08
3.83393e-08
9.20452e-07
-1.28584e-06
-1.36388e-08
1.30507e-06
1.84821e-09
6.42278e-07
-2.21365e-07
1.66114e-06
-1.49452e-06
1.18263e-06
1.86158e-07
7.4271e-08
-1.32499e-06
2.01079e-07
1.9861e-08
-1.15181e-06
1.47891e-06
-1.19595e-06
1.205e-06
-7.31368e-08
-1.14749e-06
1.22063e-06
-1.2992e-06
1.35362e-06
-1.61916e-08
-1.96785e-06
1.59057e-07
-8.66955e-09
1.27421e-06
2.5123e-08
-1.20015e-06
-1.32104e-06
1.31583e-06
5.21165e-09
1.5832e-06
-9.21405e-07
-6.61799e-07
-1.10629e-06
-1.00188e-07
1.20648e-06
-2.68557e-09
-1.30189e-06
2.8165e-08
-1.42175e-07
1.39432e-06
-1.25214e-06
-1.27818e-06
1.28464e-06
-1.8563e-06
-2.70259e-07
-1.79443e-06
1.74911e-06
4.53181e-08
1.02076e-06
5.19551e-07
1.19638e-06
1.08515e-07
-1.30489e-06
1.27272e-06
-5.20859e-08
1.02287e-06
5.11773e-07
-9.09215e-07
2.90464e-07
-1.28866e-06
1.11718e-06
-1.2714e-06
-1.7282e-06
1.722e-06
6.20232e-09
1.55808e-06
-1.25048e-06
1.27468e-06
-3.77336e-09
7.88704e-08
-1.18893e-06
1.11006e-06
-1.92349e-08
-1.70897e-06
1.54416e-06
-1.54416e-06
-7.04168e-07
1.32469e-06
-6.20522e-07
-1.27476e-06
1.27476e-06
1.30455e-06
-1.15266e-06
-1.51892e-07
1.20672e-06
2.89097e-07
1.35815e-06
-1.11515e-06
1.34474e-06
-1.51333e-08
-1.0496e-06
-1.68831e-07
1.21843e-06
-1.70734e-06
1.71331e-06
-5.97225e-09
1.57878e-06
-9.50569e-07
-6.28214e-07
2.29878e-07
1.12828e-06
-1.72522e-06
1.71649e-06
8.72955e-09
-5.12133e-10
-1.28088e-08
1.70236e-06
-1.68955e-06
-1.7189e-06
1.7189e-06
-2.05147e-08
1.29224e-06
1.84574e-06
-1.71985e-06
-1.25897e-07
-1.72638e-06
1.71357e-06
1.72463e-06
-1.71594e-06
-8.68501e-09
-1.25649e-06
-2.84683e-08
1.47057e-06
-1.99087e-08
1.71343e-06
-1.69352e-06
1.71392e-06
-1.71719e-06
3.26435e-09
-1.2969e-06
1.70489e-06
-2.52709e-09
-1.31968e-06
1.30809e-06
1.1588e-08
-1.70459e-06
1.71089e-06
-6.29964e-09
1.30603e-06
-1.27191e-06
-1.7218e-06
1.70189e-06
1.32151e-06
-4.21246e-07
6.27593e-07
8.22197e-07
-9.52898e-07
-7.33524e-07
-1.71583e-06
1.71583e-06
-1.72373e-06
-2.64999e-09
1.59581e-06
-2.93818e-07
-1.30199e-06
-1.12164e-06
7.61417e-07
4.32069e-08
1.70768e-06
-1.71305e-06
5.37476e-09
1.25692e-06
-1.25672e-06
-2.03164e-10
1.7609e-06
-1.71502e-06
-4.58893e-08
1.69857e-06
9.1063e-09
1.6955e-06
1.79305e-08
-3.63511e-09
-1.27112e-06
-1.56722e-06
8.63763e-07
7.03458e-07
-1.26929e-06
1.27762e-06
1.70409e-06
-5.52344e-09
1.78685e-07
1.15586e-06
9.16079e-07
-3.49815e-07
-1.71939e-06
-2.4086e-09
1.40199e-06
8.31031e-07
-1.41735e-06
-2.17318e-07
-1.75053e-06
1.28131e-06
-1.28958e-06
8.26672e-09
-5.95748e-08
-1.73485e-06
1.33384e-06
-1.50647e-08
1.48104e-06
-1.01234e-06
-4.687e-07
-1.28319e-06
1.70676e-06
-1.70676e-06
1.22319e-06
1.78928e-08
-1.24109e-06
1.31602e-06
-1.71038e-06
1.7081e-06
2.28449e-09
1.69803e-06
-1.71464e-06
1.66143e-08
1.07566e-06
-1.42822e-06
-4.67975e-09
-1.6983e-06
1.70298e-06
1.69436e-06
-1.69904e-06
-5.60129e-08
1.80512e-06
-1.35293e-06
1.46822e-06
-1.53815e-06
1.06771e-06
-2.70238e-08
1.74903e-06
1.46726e-07
7.56188e-07
1.73697e-08
1.57844e-06
-4.51946e-09
1.36507e-06
-1.36055e-06
-1.18447e-08
-1.71442e-06
-1.07981e-08
1.40953e-06
-1.42086e-07
-1.26745e-06
-1.70304e-06
1.70304e-06
9.96615e-07
-8.574e-07
-1.71718e-06
1.7126e-06
4.57622e-09
1.3122e-06
-1.3122e-06
1.27612e-06
-1.91988e-08
1.70538e-06
-1.70813e-06
2.7537e-09
-1.64598e-06
4.49273e-07
5.49096e-10
-1.2672e-06
1.26665e-06
1.3739e-06
-1.15137e-08
1.70876e-06
1.58647e-08
1.03691e-06
1.76608e-07
-1.21351e-06
1.71417e-06
-9.28022e-09
1.334e-06
-1.334e-06
1.70331e-06
-1.69727e-06
-6.03669e-09
-1.30396e-06
1.29356e-06
1.03945e-08
1.71621e-06
-1.71105e-06
-5.16133e-09
-1.70594e-06
1.70594e-06
2.55801e-07
1.1957e-06
4.04473e-08
-1.23614e-06
-1.71732e-06
1.71278e-06
4.54436e-09
-6.55941e-09
-1.28706e-06
1.2797e-06
1.61043e-09
1.59554e-06
-2.99003e-07
-1.29653e-06
1.10305e-06
1.69897e-06
-1.7037e-06
4.73114e-09
1.31464e-06
1.40188e-06
1.97363e-08
1.20346e-06
1.74225e-06
-3.34896e-08
1.69323e-06
5.73878e-09
1.24718e-06
-1.24718e-06
-6.56447e-07
1.72302e-06
-1.70939e-06
-5.24979e-09
1.70866e-06
-1.70226e-06
-6.39343e-09
3.38776e-08
-1.74131e-06
1.70743e-06
1.7976e-07
-1.72392e-06
-1.7142e-06
1.71119e-06
3.00675e-09
1.23766e-06
-1.23706e-06
-5.99406e-10
1.30455e-06
-1.15113e-06
1.15113e-06
1.69674e-06
-3.50569e-09
-1.27221e-06
-1.18893e-06
1.19638e-06
1.32121e-06
-1.41053e-08
-3.93623e-09
1.35362e-07
-1.68502e-06
1.70827e-06
-1.70893e-06
6.66303e-10
3.98895e-08
1.19777e-06
4.00647e-08
1.36947e-06
1.28505e-06
-8.92926e-09
-1.71051e-06
1.70842e-06
2.0954e-09
1.69532e-06
-1.70032e-06
4.99518e-09
-1.70874e-06
-8.44469e-09
1.70426e-06
-1.69966e-06
-4.59549e-09
1.28747e-06
2.47387e-08
1.7051e-06
7.5015e-09
-2.24729e-09
1.70146e-06
6.96282e-09
-2.78059e-10
-1.26124e-06
-1.72739e-06
1.84245e-08
-1.27841e-06
1.27841e-06
1.72618e-08
1.57827e-06
-1.29908e-06
2.49486e-07
9.1761e-09
1.70475e-06
7.12751e-08
-1.23241e-06
1.16114e-06
1.22485e-08
1.70665e-06
1.62843e-06
-1.77586e-06
1.28768e-06
4.63161e-08
1.69436e-06
-1.29982e-08
1.20869e-06
-1.24234e-06
5.27907e-09
1.22482e-06
-1.87917e-07
-1.69861e-06
1.69861e-06
-1.70764e-06
-9.68562e-09
1.15266e-06
-1.19432e-06
4.16564e-08
-1.70665e-06
1.25673e-06
-1.25618e-06
1.70424e-06
8.53795e-09
-1.70494e-06
-1.51812e-06
1.05811e-06
-1.71248e-06
1.70958e-06
2.90101e-09
1.16233e-06
1.10389e-07
1.2672e-06
7.55561e-09
-1.693e-06
1.70481e-06
-1.18114e-08
-1.28884e-06
1.27769e-06
1.11415e-08
-1.6984e-06
5.40082e-09
1.28175e-06
-2.04934e-09
6.96374e-08
-1.32315e-06
1.25351e-06
1.6981e-06
-1.70575e-06
7.64983e-09
1.38172e-06
-1.44632e-06
1.69789e-06
-1.6977e-06
-1.86173e-10
-1.08282e-06
1.08282e-06
-1.33629e-06
1.33629e-06
-1.69591e-06
-2.49475e-09
-7.9276e-07
9.39486e-07
-1.70086e-06
1.69834e-06
2.52016e-09
1.35548e-08
1.70227e-06
1.06059e-06
-9.39486e-07
-1.06059e-06
1.11883e-06
1.12338e-06
-1.29221e-06
1.55653e-06
-9.20531e-07
-6.36003e-07
-1.70687e-06
-7.32157e-09
-2.45196e-07
-1.11883e-06
1.36403e-06
1.70468e-06
6.51386e-09
-1.29247e-06
1.19465e-06
1.70973e-06
-1.70624e-06
-3.49185e-09
-1.6995e-06
-1.28085e-06
1.2888e-06
-4.16153e-08
-4.62522e-09
1.70872e-06
1.70133e-06
-1.26665e-06
-1.74204e-06
-1.02352e-06
1.30489e-06
-2.81377e-07
-1.69207e-06
-6.22998e-09
1.69931e-06
2.15024e-09
9.90891e-07
-1.01325e-06
2.23544e-08
1.9822e-09
1.19432e-06
-1.24238e-06
4.80588e-08
7.88568e-07
7.94636e-07
-1.70612e-06
-6.36634e-09
-1.29393e-06
1.69184e-06
-1.69039e-06
-1.44655e-09
1.70401e-06
5.57004e-09
-1.70906e-06
1.70719e-06
1.87397e-09
1.30772e-06
1.28747e-06
-1.69623e-06
1.69242e-06
3.80509e-09
1.70819e-06
-1.70741e-06
-7.83249e-10
-1.27157e-06
1.28768e-06
1.69542e-06
-1.69542e-06
6.88939e-09
1.7096e-06
-1.07023e-06
-2.28856e-07
1.69888e-06
-7.76029e-10
-2.17465e-07
1.15991e-06
-9.42444e-07
1.69458e-06
-1.69312e-06
-1.46165e-09
5.24461e-09
1.70151e-06
1.69147e-06
-1.69302e-06
1.55795e-09
-1.71138e-06
-1.70514e-06
-1.02779e-06
1.52706e-09
1.70657e-06
-1.94555e-09
-1.70098e-06
1.70292e-06
-1.69551e-06
1.69177e-06
3.74558e-09
-1.70606e-06
-3.0006e-09
-1.29141e-06
-1.2483e-06
5.96118e-09
1.70426e-06
2.9282e-09
-1.69396e-06
1.69324e-06
7.20217e-10
-1.69511e-06
6.47989e-09
1.68863e-06
1.70557e-06
4.16468e-09
-1.70024e-06
-5.99985e-09
-1.24141e-06
-5.77515e-09
1.70474e-06
-1.70577e-06
1.02732e-09
1.695e-06
-1.69694e-06
-1.69813e-06
1.69577e-06
2.35599e-09
1.69387e-06
-1.6925e-06
-1.37073e-09
1.27745e-06
9.66296e-10
1.70528e-06
2.91642e-09
-1.70286e-06
-4.55282e-09
-1.70905e-06
1.2888e-06
-1.6948e-06
1.69138e-06
3.41845e-09
1.12515e-06
-1.19829e-06
-1.69001e-06
1.6964e-06
-6.38905e-09
1.69532e-06
-1.69788e-06
2.55958e-09
-4.28812e-09
-1.70437e-06
-1.68855e-09
-4.49657e-09
-1.50529e-06
1.0682e-06
-2.96073e-09
1.695e-06
-2.86161e-09
-1.8574e-09
-1.70585e-06
1.4763e-09
6.54272e-07
1.43246e-06
-2.08673e-06
-3.53217e-07
1.70471e-06
3.04814e-11
-1.70151e-06
3.22603e-09
1.69981e-06
-1.7025e-06
-3.27669e-09
-1.28181e-06
-1.70757e-06
1.71667e-09
6.12741e-09
1.69925e-06
-2.47145e-10
8.183e-09
-1.67875e-06
1.67057e-06
1.70711e-06
-1.70624e-06
-8.69584e-10
-1.30445e-06
2.34224e-07
1.70383e-06
-1.70085e-06
-2.98001e-09
-1.7049e-06
-1.26452e-06
-6.69846e-08
1.69352e-06
-1.69217e-06
-1.34918e-09
8.99144e-09
-1.68034e-06
1.67135e-06
-1.70668e-06
1.70346e-06
3.21779e-09
-1.29096e-06
1.27988e-06
1.10811e-08
1.45261e-09
-1.70664e-06
-9.28715e-10
-1.29937e-06
2.69485e-07
1.02988e-06
-1.70444e-06
-2.24146e-09
1.70652e-06
5.92481e-10
-1.7037e-06
-2.53931e-09
-6.9389e-09
-1.70675e-06
1.16166e-10
-1.2279e-06
-1.40545e-07
1.36845e-06
9.81372e-07
7.23984e-09
-1.69981e-06
1.28065e-06
-2.95408e-09
-1.69346e-06
1.69346e-06
-3.29293e-09
1.70571e-06
8.07603e-10
-1.36258e-09
2.70883e-09
2.78322e-09
1.70635e-06
-6.39158e-10
1.01316e-09
1.70591e-06
-1.70592e-06
2.39102e-12
1.23133e-06
-1.23133e-06
-1.70242e-06
1.6987e-06
3.7132e-09
1.69634e-06
-1.69461e-06
-1.72619e-09
-2.4442e-09
1.70529e-06
1.06122e-09
1.70536e-06
5.52483e-10
-6.28091e-10
1.70541e-06
1.70389e-06
-1.70481e-06
9.18795e-10
-1.72033e-06
-1.69842e-06
-3.9924e-09
1.31359e-06
-1.61993e-08
1.70236e-06
1.53741e-09
1.4174e-08
1.70366e-06
-1.70175e-06
-1.9095e-09
-1.21744e-06
1.21744e-06
9.72934e-09
1.69621e-06
-1.69315e-06
1.6959e-06
-2.74914e-09
1.70329e-06
3.71655e-10
9.74338e-09
1.2753e-06
1.70129e-06
-1.7006e-06
-6.88304e-10
-1.68779e-06
-5.36628e-09
1.69663e-06
-1.69801e-06
1.38079e-09
1.70016e-06
1.12731e-09
1.70327e-06
2.08996e-09
-1.67872e-08
-1.68419e-06
-2.41575e-09
-1.50167e-07
-1.14319e-06
1.69382e-06
-1.69547e-06
1.65095e-09
5.06457e-08
1.18069e-06
1.70109e-06
-1.69944e-06
-1.64237e-09
-1.54263e-09
-2.98671e-08
-1.4127e-06
1.44257e-06
-1.23214e-06
1.24635e-06
-1.42064e-08
-1.6858e-06
1.68637e-06
-5.62053e-10
1.69908e-06
2.00597e-09
-1.69397e-06
-1.05749e-06
1.71176e-06
1.69979e-06
-1.69732e-06
-2.47062e-09
-1.70138e-06
1.70142e-06
-3.74016e-11
1.69663e-06
-1.69511e-06
-1.52689e-09
-1.65567e-07
-1.45548e-06
1.62105e-06
1.698e-06
1.7908e-09
-1.68717e-06
1.3617e-09
1.70005e-06
-1.69788e-06
-2.16897e-09
1.27745e-06
-1.3071e-06
1.3071e-06
1.69941e-06
-1.69614e-06
-3.26698e-09
-3.34081e-09
1.70008e-06
-2.68248e-09
-1.27919e-06
1.69694e-06
2.46868e-09
-1.70121e-06
-3.22544e-09
-1.6845e-06
1.68542e-06
-9.19085e-10
1.70141e-06
9.51763e-10
2.92212e-08
1.68409e-06
-3.48682e-10
1.69993e-06
4.33197e-09
1.27433e-06
6.31291e-09
2.1139e-10
-1.68624e-06
1.73276e-09
1.298e-07
4.81472e-09
5.45918e-08
1.69507e-06
-1.69665e-06
1.57907e-09
-1.68271e-06
1.6847e-06
-1.98996e-09
3.11594e-08
-1.27664e-06
1.24548e-06
2.28005e-07
-1.32836e-06
1.10035e-06
4.82157e-07
1.20529e-06
-1.20529e-06
1.69382e-06
-1.69382e-06
-1.38797e-06
7.7475e-10
-1.697e-06
1.30019e-06
1.69942e-06
3.87349e-09
-3.19348e-07
-5.96021e-07
9.15369e-07
-1.68523e-06
2.52023e-09
-1.68598e-06
-5.53268e-08
7.20476e-07
-1.1881e-06
4.67621e-07
-1.18088e-09
1.16476e-08
1.68476e-06
3.11344e-09
1.27863e-06
-1.70195e-06
3.60613e-09
1.695e-06
1.08133e-06
-1.3196e-06
2.38268e-07
1.10025e-06
-3.79774e-07
-2.13818e-09
-1.69338e-06
1.70227e-06
-1.69063e-06
-1.69725e-06
-1.68049e-06
1.67887e-06
1.61742e-09
4.12905e-10
1.69793e-06
1.69203e-06
1.78169e-09
1.54615e-06
-1.02688e-06
-5.19274e-07
-4.78569e-09
1.29247e-06
1.69743e-06
2.73322e-09
1.54616e-06
-1.71173e-06
1.16524e-08
1.68469e-06
-2.01383e-09
-1.69279e-06
-1.68252e-06
2.03641e-09
-1.23511e-06
2.97235e-09
1.29862e-06
-1.04139e-06
-2.57233e-07
1.68899e-06
-1.68911e-06
1.23459e-10
-2.01666e-09
4.87304e-07
-6.85072e-07
-6.41216e-07
1.32629e-06
1.69222e-06
-1.6948e-06
2.57994e-09
1.34224e-06
-1.32435e-06
-3.94441e-09
1.29141e-06
-1.10852e-06
7.89175e-07
1.69048e-06
-1.69215e-06
1.67904e-09
1.70028e-06
-1.68863e-06
-1.27449e-06
4.31611e-08
-1.27895e-06
1.27668e-06
2.27691e-09
1.24238e-06
-1.27224e-06
2.73918e-08
1.68349e-06
-1.29225e-06
1.25025e-06
-4.5597e-08
1.69756e-06
-1.6955e-06
-2.06114e-09
1.32104e-06
-1.26318e-06
-5.78648e-08
1.69203e-06
-1.03027e-09
-1.69293e-06
-1.25215e-06
3.85157e-09
1.57351e-07
9.61086e-07
-1.11844e-06
-1.67833e-06
1.67649e-06
1.84705e-09
1.68929e-06
6.03258e-09
-1.0693e-06
-2.22912e-07
1.24896e-08
1.68414e-06
1.69463e-06
-1.69867e-06
4.039e-09
1.69261e-06
-3.1062e-09
-1.68728e-06
-1.31797e-06
-2.23118e-07
1.6955e-06
3.57732e-09
1.80413e-06
-3.71674e-07
-1.05138e-08
1.69397e-06
-1.68346e-06
1.69305e-06
1.58096e-09
-1.6808e-06
2.46672e-09
-1.68537e-06
-1.23316e-08
-3.18916e-09
1.67122e-06
-1.66803e-06
2.22392e-09
1.69319e-06
1.70052e-06
-1.68803e-06
-1.695e-06
-5.13432e-09
1.29393e-06
-1.82111e-09
1.28211e-06
-6.46812e-08
-1.21743e-06
1.75723e-08
1.26454e-06
-1.67365e-06
1.67047e-06
-1.6947e-06
-3.72112e-09
1.07584e-06
2.22784e-07
-6.13296e-09
1.31091e-06
-1.30478e-06
-1.08506e-06
-9.08028e-07
1.06538e-06
-1.41493e-06
1.7678e-07
1.23815e-06
1.69245e-06
1.31428e-09
-1.69444e-06
1.70802e-08
1.68519e-06
1.68995e-06
-1.69021e-06
2.6442e-10
1.69364e-06
-1.68857e-06
-5.07041e-09
-1.6959e-06
1.19849e-09
-2.50384e-09
-1.28021e-06
1.28271e-06
2.70645e-10
1.6955e-06
-1.17564e-06
3.44622e-07
-1.69377e-06
1.69277e-06
9.92478e-10
-1.67597e-06
1.67394e-06
2.03679e-09
1.6358e-08
1.38101e-06
-1.34057e-06
1.01611e-06
-2.52233e-08
-9.0026e-09
1.69493e-06
-1.68593e-06
-1.51008e-06
8.2501e-07
1.69186e-06
1.49959e-09
-1.694e-06
1.69356e-06
4.44291e-09
-1.58223e-06
1.49663e-08
1.56726e-06
2.71973e-09
-1.67869e-06
1.6903e-06
-1.68853e-06
-1.77402e-09
-5.39075e-08
1.70058e-06
-1.64667e-06
-2.582e-09
-3.48653e-07
1.59171e-06
-1.24306e-06
-1.27449e-06
-1.40081e-06
1.69136e-06
-8.83686e-10
1.50825e-08
1.6852e-06
1.65033e-06
1.7077e-06
-1.70708e-06
-6.26489e-10
1.03645e-09
-1.28427e-06
1.28324e-06
-1.69237e-06
1.69122e-06
1.15832e-09
3.46187e-08
-1.27603e-06
1.24141e-06
1.69459e-06
-1.69394e-06
-6.53565e-10
-1.31227e-06
1.30614e-06
1.68963e-06
-1.68831e-06
-1.3173e-09
4.76487e-09
1.68888e-06
-2.10573e-08
1.69858e-06
-1.69335e-06
1.50808e-08
-1.24788e-06
1.69337e-06
-1.69306e-06
-3.10703e-10
1.69249e-06
9.84509e-10
-1.69316e-06
1.6838e-06
3.52837e-09
-1.68733e-06
4.1126e-10
1.69357e-06
-1.6888e-06
-4.29336e-09
-1.28282e-06
1.28711e-06
9.10496e-07
-1.33871e-06
4.28216e-07
-2.81502e-07
-1.30073e-06
-1.24587e-06
-2.77601e-07
-1.09159e-06
-1.69151e-06
9.91076e-09
1.6816e-06
-1.29047e-06
1.28282e-06
7.64912e-09
-3.91922e-07
-1.0363e-06
-1.69052e-06
1.51007e-06
-1.68706e-06
1.69007e-06
-3.01134e-09
-1.40867e-06
1.39131e-07
1.26954e-06
1.34924e-06
-1.03601e-06
-3.13234e-07
-1.69307e-06
3.45235e-09
1.68962e-06
1.28501e-06
-1.26857e-06
3.59669e-09
1.6867e-06
-1.69319e-06
1.74643e-09
1.69172e-06
1.69137e-06
5.57064e-09
-2.92391e-10
-1.69273e-06
-5.63193e-09
-1.68813e-06
-1.68878e-06
1.28389e-06
-1.26893e-06
-7.29686e-09
3.62156e-07
1.11888e-06
-1.15428e-06
1.15428e-06
1.48716e-08
1.68564e-06
-1.91923e-06
-1.56235e-06
1.56339e-06
1.69374e-06
1.28251e-06
-1.27258e-06
-1.69123e-06
1.6856e-06
-1.42986e-06
1.46448e-06
1.68999e-06
-1.6885e-06
-1.48459e-09
2.10002e-09
1.69172e-06
-1.71153e-06
1.28786e-06
-1.29215e-06
-1.69067e-06
2.88854e-09
6.37948e-07
1.69486e-06
-1.6928e-06
-2.05814e-09
-1.69372e-06
1.69008e-06
-1.68867e-06
-1.40842e-09
-1.68983e-06
-1.68277e-09
1.68611e-06
-1.68093e-06
-1.29224e-06
1.55545e-06
1.68861e-06
-1.68808e-06
-5.31709e-10
-2.99903e-09
1.6868e-06
-1.29047e-06
1.11902e-06
-1.21185e-06
9.28354e-08
-2.0834e-06
2.0834e-06
1.69295e-06
1.69327e-06
-4.3072e-09
2.89387e-09
-1.6926e-06
1.69872e-06
-6.11717e-09
1.68956e-06
-1.68814e-06
-1.42506e-09
-1.40199e-06
1.335e-06
5.32891e-09
1.68864e-06
-1.69301e-06
4.62312e-09
1.68839e-06
-1.68797e-06
1.6916e-06
-1.68934e-06
-1.29641e-06
-1.69161e-06
5.72889e-09
1.68588e-06
-1.29797e-06
-3.72416e-09
1.26715e-06
-1.27633e-06
9.17892e-09
1.68734e-06
-1.68876e-06
1.41902e-09
3.2034e-08
-1.6916e-06
1.68876e-06
2.83845e-09
1.69092e-06
-1.24009e-06
-1.2317e-06
-2.04512e-08
1.6927e-06
-1.6927e-06
-8.65759e-09
1.2861e-06
-1.69172e-06
1.68925e-06
-1.68782e-06
-1.42476e-09
1.69237e-06
-9.51994e-09
-1.69014e-06
-1.25875e-06
-1.53953e-07
-1.29342e-06
1.01028e-06
-1.12892e-06
1.18634e-07
-2.5212e-07
-1.0926e-06
1.34472e-06
1.68607e-06
-1.68157e-06
1.09712e-06
-1.27664e-06
-3.71601e-09
-1.68936e-06
1.69017e-06
-1.68877e-06
-1.40495e-09
1.2987e-06
-1.30556e-06
-3.56536e-07
-2.36421e-07
5.92957e-07
-1.34656e-06
1.35734e-06
1.30368e-06
-1.2861e-06
-5.09611e-09
-1.26418e-06
1.26927e-06
-6.77309e-09
-1.2543e-06
1.26107e-06
4.32055e-09
-1.31685e-06
1.31253e-06
1.21203e-08
-1.3216e-06
1.30947e-06
6.35853e-09
-1.29405e-06
1.28769e-06
-2.15051e-09
-1.26713e-06
1.26929e-06
-1.87926e-09
-1.26624e-06
1.26812e-06
7.60796e-07
-5.12693e-07
-2.48103e-07
1.12338e-06
8.4176e-09
1.68652e-06
1.23653e-06
-1.24507e-06
8.5391e-09
3.97275e-09
-1.68948e-06
1.68551e-06
1.69392e-06
-1.69392e-06
1.67148e-06
-1.44923e-10
-1.67133e-06
-5.78362e-09
-1.68544e-06
1.68912e-06
-1.68764e-06
-1.48178e-09
-1.04988e-06
-1.37835e-06
-3.03211e-08
1.1078e-06
2.13248e-07
1.69261e-06
-1.69021e-06
-2.39536e-09
-1.28839e-06
1.34047e-06
5.67163e-09
1.6879e-06
-9.29321e-07
-5.80762e-07
1.32315e-08
1.2118e-06
-1.22503e-06
-8.65746e-07
-1.47499e-07
-2.90424e-07
-1.78634e-07
4.69058e-07
1.27233e-06
1.27253e-06
1.32787e-06
1.32814e-06
1.31896e-06
1.30095e-06
-6.02067e-09
-1.27495e-06
1.28097e-06
1.27624e-06
-1.90398e-09
-5.00591e-07
1.68968e-06
-1.6857e-06
-4.21303e-08
1.35983e-06
-1.69451e-06
-1.15631e-06
1.43246e-06
1.66958e-06
9.73973e-10
-1.67055e-06
1.69616e-06
-3.46183e-09
-1.69249e-06
6.16345e-09
1.68633e-06
-1.2758e-06
-1.28021e-06
1.27997e-06
-1.28599e-06
-1.16461e-06
1.40551e-06
-2.40898e-07
-3.05243e-09
-1.68856e-06
8.82714e-07
-1.10018e-06
2.78483e-09
-1.69131e-06
-1.68928e-06
-4.49186e-07
-6.59337e-07
-1.68628e-06
-3.20932e-09
1.2951e-06
4.04261e-07
9.88041e-07
1.68746e-06
-1.68616e-06
-1.30657e-09
1.28529e-06
-8.5016e-07
-4.35125e-07
-6.12711e-07
3.22287e-07
-7.10758e-07
1.53577e-06
-6.15596e-07
1.27908e-06
-6.63481e-07
6.56754e-10
1.69156e-06
-1.67993e-06
1.68864e-06
-1.68963e-06
9.83284e-10
-9.56197e-07
4.07157e-07
5.4904e-07
-5.56203e-09
-1.27463e-06
1.28019e-06
1.76825e-06
-7.81138e-07
-9.87109e-07
1.16679e-09
1.67031e-06
-3.67967e-07
-5.88229e-07
-1.2343e-06
1.24753e-06
1.0539e-06
6.94722e-08
-1.2285e-06
-2.51843e-09
-1.27598e-06
1.2785e-06
1.31698e-06
-1.27709e-06
-7.83453e-07
-2.98238e-07
1.08169e-06
-1.68612e-06
1.68661e-06
-4.95688e-10
-1.24529e-06
1.26037e-06
1.68787e-06
-1.68898e-06
-1.12828e-06
-2.59955e-08
-1.70058e-06
1.69419e-06
-8.80661e-07
1.26481e-09
1.6888e-06
1.47226e-06
-8.13621e-07
-6.58639e-07
1.24478e-06
-2.34499e-07
1.39351e-06
-1.81712e-07
1.27819e-06
-1.28375e-06
1.68568e-06
-1.68569e-06
1.51138e-11
1.27894e-06
-1.28146e-06
1.55018e-09
-1.68475e-06
1.6832e-06
-7.10282e-07
-1.70378e-07
4.95978e-09
-1.2972e-06
-1.68957e-06
2.40022e-09
1.12828e-06