/*--------------------------------*- C++ -*----------------------------------*\
  =========                 |
  \\      /  F ield         | OpenFOAM: The Open Source CFD Toolbox
   \\    /   O peration     | Website:  https://openfoam.org
    \\  /    A nd           | Version:  12
     \\/     M anipulation  |
\*---------------------------------------------------------------------------*/
FoamFile
{
    format      ascii;
    class       volVectorField;
    location    "0.06";
    object      U;
}
// * * * * * * * * * * * * * * * * * * * * * * * * * * * * * * * * * * * * * //

dimensions      [0 1 -1 0 0 0 0];

internalField   nonuniform List<vector> 
4428
(
(0.00045647 0.000173457 1.01429e-16)
(-0.000461819 0.000191462 -9.03835e-17)
(-0.000423651 0.000195163 0)
(-0.000435562 0.000185691 0)
(0.000417792 0.000350903 8.16401e-17)
(0.000445234 0.000364932 3.31967e-21)
(-0.000418509 0.000248533 0)
(-0.00046633 0.000165605 1.46411e-16)
(0.00045519 0.000190619 -2.49067e-16)
(0.00047314 0.000134067 9.95385e-17)
(-0.000433688 0.000147553 -1.73331e-16)
(0.000423676 0.000190192 -1.76864e-16)
(-0.000485164 9.54815e-05 -2.03661e-16)
(-0.000145201 0.000534822 -9.58164e-17)
(0.000449844 0.000173869 0)
(0.000415794 0.000149151 0)
(0.000473495 0.000172374 0)
(-0.000433742 0.000147491 0)
(-0.000487357 9.46097e-05 0)
(0.000457099 0.000171165 0)
(0.000160596 0.000132365 -4.48037e-16)
(-0.000460598 0.000175881 -1.77703e-16)
(-0.000433301 0.000188838 0)
(-0.000481229 0.00015648 0)
(-0.000458238 0.000175086 2.26618e-17)
(-0.000434763 0.000155894 0)
(-0.000441222 0.00024054 1.03357e-16)
(0.000448014 0.000135961 2.07805e-16)
(0.000422202 0.000209106 0)
(-0.00049382 0.000105562 0)
(0.000461898 0.000100639 0)
(-0.000465642 0.00017385 -1.84205e-16)
(0.000465998 0.000148867 -9.00199e-17)
(-0.000479591 0.000237845 -2.77425e-16)
(-1.25995e-05 0.000626941 4.69775e-17)
(-0.000463369 0.000182121 1.99863e-16)
(-0.000459369 0.000236576 -4.41162e-21)
(0.000421802 0.000568673 1.27045e-17)
(-5.74313e-05 0.000543648 -2.62236e-17)
(-0.000436397 0.000193614 0)
(0.000464529 0.00016688 0)
(0.000408367 0.000124614 0)
(0.000434827 0.000146466 9.24323e-17)
(-0.000477404 0.000149988 1.66059e-16)
(0.000455439 0.000134418 0)
(0.000368383 0.000140243 0)
(0.000430325 0.000418581 -9.97846e-17)
(-0.000432372 0.000215904 2.03145e-16)
(-0.000443608 0.000193656 2.24461e-16)
(-0.000456646 0.00020357 0)
(0.000458055 0.000196025 0)
(0.000399725 0.000204996 1.88123e-16)
(0.00047326 0.000137363 -9.1319e-17)
(0.000405397 0.000211031 0)
(0.000419851 0.000182703 -1.39785e-17)
(0.000283982 0.000129439 0)
(0.000415826 0.000201642 -9.29935e-17)
(-0.000437119 0.000135597 0)
(0.000380247 0.000409289 1.82962e-16)
(0.000448939 0.000149617 -1.82011e-16)
(0.000471179 0.000181062 1.67097e-16)
(-0.000474291 0.00014949 0)
(0.000408702 0.000159507 2.79953e-16)
(-0.00046493 0.000173405 9.26987e-17)
(-0.000462411 0.000182612 0)
(0.000426066 0.000186868 0)
(-0.000473644 0.000152049 1.73159e-16)
(-0.000438321 0.000189011 -1.85821e-16)
(0.000441912 0.000155411 -1.82186e-16)
(-0.000457529 0.000197985 -3.61911e-16)
(-0.000475517 0.000145214 -9.16137e-17)
(0.000442281 0.000203592 2.12654e-16)
(0.000488393 0.000219547 5.8051e-17)
(-0.000429001 0.000181843 4.46956e-17)
(0.000453901 0.000160355 1.96651e-16)
(-7.93644e-06 0.000613784 -1.83296e-16)
(0.000475435 0.000219949 0)
(0.000489424 0.000198553 0)
(-0.000425061 0.000250714 -1.18145e-16)
(0.000321707 0.000147364 -4.21936e-21)
(0.000416542 0.0002152 -1.9754e-16)
(-0.000470472 0.000146876 0)
(0.000431122 0.000210569 -1.81064e-16)
(0.000442389 0.00019015 -1.72067e-16)
(0.000471265 0.000170356 3.18307e-16)
(-0.000512306 0.000149506 -2.54692e-16)
(-6.5137e-05 0.000702315 1.15145e-16)
(-0.000470193 0.000172667 0)
(-0.000463639 0.000175678 -9.60346e-17)
(0.000422823 0.000186197 2.04742e-17)
(0.000455158 0.000133581 8.36654e-17)
(0.000465985 0.000166957 -1.59369e-16)
(-0.000471476 0.000187417 0)
(-0.000476929 0.000178862 0)
(-0.000462935 0.000183041 9.81699e-17)
(-0.000447259 0.000191571 1.67121e-16)
(0.000470791 0.000185174 1.13532e-16)
(-0.000482699 0.000184212 -1.19904e-16)
(-0.000476236 0.00014351 9.28712e-17)
(0.00043079 0.000241861 0)
(0.000428859 0.000199157 -2.25142e-17)
(0.000443537 0.000175069 0)
(0.000455161 0.000159044 0)
(0.000411238 0.000156605 -1.87988e-16)
(0.00041379 0.000199937 -1.03702e-16)
(0.00041728 0.000199809 2.46143e-21)
(0.000448903 0.00018484 1.90327e-16)
(-0.000460821 0.000224795 -1.22457e-16)
(0.000476084 0.000183401 -1.20824e-16)
(0.000429931 0.000222235 0)
(0.000447066 0.000145126 1.64696e-16)
(0.000447521 0.000171365 -1.94805e-16)
(-0.000430263 0.000179286 2.64974e-21)
(0.000423583 0.000161816 1.65966e-16)
(-0.000263447 0.000164735 1.15543e-16)
(-0.000476375 0.000141908 1.80234e-16)
(-0.000101789 0.000599063 0)
(0.000185973 0.000146193 5.24748e-17)
(-0.000480675 0.000155981 8.87658e-17)
(0.000485717 0.000194048 -1.12861e-16)
(0.000490312 0.000189157 2.11533e-16)
(-0.000425417 0.000252859 2.4128e-16)
(0.000309544 0.000506603 -1.96898e-16)
(0.000462714 0.00015124 -3.03621e-16)
(7.19683e-06 0.000627441 1.78761e-16)
(-0.000465535 0.000173611 0)
(-0.000472278 0.000154934 -2.7226e-16)
(0.000428979 0.000184089 9.95095e-17)
(-0.000462429 0.000189446 -3.04103e-16)
(-0.000464601 0.000181441 9.66775e-17)
(-0.000475473 0.000146607 -1.87134e-16)
(-0.000454444 0.000188305 0)
(0.000462823 0.000185589 2.24128e-16)
(0.000438573 0.000168631 0)
(0.000445582 0.000173518 0)
(0.00047652 0.000205721 6.53764e-21)
(0.000483016 0.000201912 -2.43673e-16)
(-0.00047565 0.000143922 -1.8239e-16)
(-0.000465415 0.000177918 -1.83552e-16)
(-0.000460452 0.000186657 1.4395e-16)
(-0.000462902 0.000227491 -1.23708e-16)
(-0.000465062 0.000168211 -9.67492e-17)
(0.000438957 0.000176872 0)
(0.00044258 0.000177954 -1.9943e-16)
(0.00046138 0.000171851 0)
(0.000437492 0.000168657 9.67652e-17)
(0.000476122 0.000222395 1.28476e-16)
(-1.06186e-05 0.000443557 -9.13954e-17)
(0.000493053 0.000125533 2.88891e-16)
(-8.87997e-06 0.000625343 4.54413e-17)
(-0.000465197 0.000173838 -1.99515e-16)
(-0.000300616 0.000137065 1.00284e-16)
(0.000442514 0.00013532 -9.66392e-21)
(0.00049517 0.000167273 -2.48626e-16)
(-0.00046427 0.000181256 2.91597e-16)
(0.000469822 0.000173655 0)
(0.000431186 0.000288106 -1.77129e-16)
(0.000458085 0.00013334 -9.48491e-17)
(0.000458745 0.000159342 -1.78769e-16)
(-0.000469349 0.000149344 -9.12352e-17)
(-0.000461906 0.00019255 1.95449e-16)
(0.000448837 0.000178261 0)
(0.0004888 0.00014739 0)
(-0.00016252 7.26908e-05 -2.17178e-16)
(-0.000486943 0.000211159 1.19566e-16)
(-0.00047623 0.000145702 0)
(-0.000463172 0.000169623 0)
(0.000488238 0.000150729 0)
(-0.000463635 0.000177394 1.94512e-21)
(-0.000464653 0.00020153 9.36795e-17)
(-0.000473356 0.000152373 -9.38006e-17)
(0.000463125 0.000185032 4.00793e-21)
(-0.000465875 0.000174366 0)
(0.000414558 0.000177519 0)
(0.000426964 0.000555889 -1.16376e-17)
(-0.000491077 0.000213071 2.29081e-16)
(0.000468099 0.000167009 0)
(0.000404011 0.000212332 2.14592e-16)
(0.00044095 0.000192458 2.17942e-16)
(-0.000490321 0.000210353 1.14321e-16)
(-6.90976e-05 0.000623903 -6.95623e-21)
(-0.000449279 0.000187248 1.7508e-16)
(-0.000468177 0.000163652 1.91953e-16)
(0.000432056 0.000162878 0)
(-0.000464816 0.000174129 3.00575e-16)
(-0.000458569 0.00021796 -9.52182e-17)
(0.000459098 0.000178853 0)
(-0.000463559 0.000180775 0)
(0.000399719 0.000165201 3.43575e-16)
(0.00046236 0.00020779 0)
(0.000450245 0.000163404 0)
(0.000469011 0.000233009 2.58473e-17)
(0.00045688 0.000160274 0)
(0.000457081 0.00020133 -3.67877e-16)
(-0.000447151 0.000218047 0)
(-0.000446508 0.000216519 -1.80869e-16)
(-0.00044606 0.000215881 2.70927e-16)
(-0.000442468 0.000211725 8.88786e-17)
(0.00063197 0.000366193 1.4876e-16)
(-0.000147102 0.000660519 0)
(0.000457806 0.000208204 2.13766e-16)
(-0.000467872 0.000169376 -1.94083e-16)
(0.000368873 0.000196524 -1.9031e-16)
(-0.000471212 0.000150314 0)
(0.000416217 0.000164862 -1.76633e-16)
(0.000452806 0.000158935 -2.98062e-18)
(-0.000462714 0.000178225 9.32594e-17)
(-0.000103094 0.000718306 -1.77911e-16)
(-0.000235503 0.000622543 1.11843e-17)
(0.000306955 0.00015991 0)
(0.000465362 0.000202202 0)
(0.000514425 0.000175126 0)
(0.000460759 0.000193649 5.93057e-21)
(-0.000467118 0.000164079 0)
(0.000452073 0.000167449 0)
(-0.000451576 0.000213463 -1.40091e-16)
(-0.000447451 0.000210689 1.83787e-16)
(1.92927e-05 0.00062575 -1.84695e-16)
(-0.000438791 0.000173844 1.99301e-16)
(-0.000444578 0.000214825 -4.53599e-17)
(0.000459769 0.000192404 1.95367e-16)
(0.000496174 0.000169777 -6.15127e-17)
(-0.00046039 0.0001797 1.85472e-16)
(0.000480477 0.000214036 0)
(-0.000447459 0.000215518 0)
(-0.000464469 0.000174566 0)
(-0.000466523 0.000179408 -1.08728e-16)
(0.000449655 0.000161148 -1.93046e-16)
(0.000428512 0.000182054 3.80653e-21)
(-0.000463077 0.000180527 0)
(-0.000464642 0.000168977 9.83255e-17)
(-0.000287192 0.000570611 0)
(0.000393041 0.00025222 0)
(7.53348e-05 0.000695079 8.61765e-17)
(0.000435826 0.00017988 5.74635e-17)
(-0.00045118 0.000207934 0)
(-0.000449427 0.000212188 0)
(-0.000449794 0.000210537 1.8822e-16)
(-0.000451109 0.000209327 -1.86176e-16)
(-0.000470278 0.0001533 2.97773e-16)
(-4.64284e-05 0.000124202 5.13891e-17)
(-0.000487873 0.00019203 -5.90075e-17)
(-0.000439746 0.000212616 6.23712e-17)
(0.000449551 0.00017998 2.23738e-17)
(-0.000466301 0.000165551 -9.62597e-17)
(-0.000126806 0.000471481 -1.01157e-16)
(-0.000460633 0.00022122 1.89329e-16)
(-0.000467948 0.00016715 1.92819e-16)
(0.000536463 0.0003579 0)
(-5.20049e-05 0.000468332 0)
(-0.000486153 0.000199575 6.06138e-21)
(0.000441086 0.000175323 2.04398e-16)
(0.000459596 0.00019502 -1.05651e-16)
(-0.000447825 0.000210278 1.81891e-16)
(0.000395853 0.000146522 -1.31319e-16)
(8.16674e-05 5.4184e-05 1.07918e-16)
(-0.000449309 0.000210692 -3.65593e-16)
(1.71897e-06 0.000621472 0)
(-0.000532392 0.000185236 -3.66796e-17)
(-0.000453216 0.000208356 -2.11765e-16)
(-0.000451999 0.000209127 1.90022e-16)
(-0.000161461 8.06944e-05 2.1722e-16)
(-0.000464322 0.000170046 0)
(0.000498894 9.94364e-05 1.23015e-16)
(-0.000449452 0.000208953 -9.37862e-17)
(-0.000461401 0.000178864 -1.00074e-16)
(0.000475523 0.00017174 0)
(-0.000449925 0.000209922 0)
(-0.000313695 0.000683971 1.37279e-16)
(-0.000478332 0.000162047 -1.8374e-16)
(0.000452062 0.000155356 0)
(0.000470041 0.000223589 2.37183e-16)
(0.000449361 0.000179249 1.23126e-17)
(-9.00836e-05 0.000505392 2.58446e-16)
(-0.000464685 0.000175644 0)
(0.000439543 0.00018772 1.98135e-16)
(0.000455179 0.000171271 -2.63566e-16)
(-0.00046527 0.000168243 1.943e-16)
(0.000487672 0.00023766 0)
(7.83836e-05 5.18239e-05 -1.10466e-16)
(-0.000513821 0.000214326 -2.59143e-22)
(-7.76219e-05 0.00063441 9.63425e-17)
(0.000450941 0.000170935 0)
(-0.000469265 0.000155781 -2.99181e-16)
(0.000419512 0.000237391 3.93352e-16)
(0.000411148 0.000236216 -9.12455e-17)
(0.00045515 0.000179043 -1.32952e-17)
(0.000457667 0.000156206 -1.26249e-16)
(0.000458147 0.00018162 1.9444e-16)
(0.000457892 0.000169941 0)
(-0.000510231 0.00014897 1.43581e-16)
(-0.000481184 0.000157265 -1.87094e-16)
(-0.0004541 0.000204159 -7.47208e-19)
(0.000431013 0.000211407 0)
(0.000423962 0.000189439 2.14675e-16)
(0.000147487 4.96499e-05 2.31987e-16)
(-0.000461586 0.000171987 1.95537e-16)
(-0.000448446 0.000208466 2.07966e-16)
(-0.000459796 0.000211085 0)
(-0.000283023 0.000667001 1.96766e-16)
(-0.00046657 0.000169315 5.90399e-21)
(0.000432289 0.000165182 1.14696e-16)
(-0.000463908 0.000170806 0)
(-0.000451943 0.000208076 -1.18785e-17)
(-0.000451372 0.000209556 0)
(-0.0004507 0.000209577 -1.85915e-16)
(-0.000463788 0.000181542 0)
(-6.7759e-05 0.000693436 -1.19595e-16)
(0.000298469 0.000171879 -3.44563e-16)
(0.000443535 0.000234466 1.25599e-16)
(-0.000464953 0.000169718 9.79725e-17)
(0.000444039 0.000175871 0)
(0.000474893 0.000229899 -1.26569e-16)
(-7.80883e-05 0.000676378 -1.90458e-16)
(0.000278278 9.36305e-05 -2.23909e-16)
(0.000449864 0.000184722 0)
(0.000457625 0.000205042 0)
(0.000447285 0.000190103 -1.87619e-16)
(-0.000468285 0.000158542 0)
(-0.000461712 0.000176323 1.96573e-16)
(-0.000115431 0.00074542 -6.17617e-18)
(-0.000489851 0.000217661 -1.01493e-16)
(-0.000427377 0.00016454 6.10888e-17)
(0.000442392 0.000171466 3.89329e-16)
(-0.000328524 0.00101108 -1.46082e-16)
(0.000756473 0.00029839 -1.97881e-16)
(0.000429181 0.000202987 -2.12588e-16)
(-0.000458518 0.000178736 9.6432e-17)
(-0.000459444 0.000215539 -1.21776e-17)
(-0.000447942 0.000211467 -1.89498e-16)
(0.000448522 0.000171291 2.09793e-16)
(-0.00046261 0.000171913 0)
(-0.000463864 0.000171189 9.90864e-17)
(-0.000532386 0.000183883 1.50962e-16)
(-0.000465195 0.000222651 0)
(-0.000457959 0.000211922 0)
(0.000469758 0.000224101 -1.23286e-16)
(0.000426279 0.0001625 0)
(-0.000464608 0.000174172 0)
(0.000433657 0.000165793 0)
(-0.000451202 0.000208377 1.18326e-17)
(-0.000456957 0.000205482 7.54749e-19)
(0.000421129 0.00013425 0)
(0.000453479 0.000167638 1.92893e-16)
(-1.59891e-06 0.000626538 0)
(0.000457113 0.000146333 0)
(-0.00046581 0.000171454 4.92546e-17)
(-0.000468061 0.000166758 -3.01489e-16)
(4.40583e-05 0.000274385 0)
(-0.000460311 0.000177888 -1.93421e-16)
(-0.00048936 0.000107525 9.23835e-17)
(-0.000497988 0.000190195 -4.47917e-21)
(-0.000492923 0.00016441 -2.43401e-16)
(-0.000532884 0.000179908 1.51165e-16)
(-0.000453055 0.000217052 0)
(-0.000468729 0.000161537 2.02119e-16)
(-0.000460118 0.000176783 1.00297e-16)
(0.000452736 0.00017154 0)
(-0.000456305 0.000155217 1.62548e-16)
(-0.000462734 0.000171604 -2.68744e-16)
(-6.34269e-06 0.000606099 0)
(-0.000448674 0.000206831 -2.80442e-16)
(-0.000462027 0.0001948 0)
(-0.000465374 0.000172984 0)
(0.000460071 0.000167738 2.03121e-16)
(-0.000463979 0.000169816 1.01386e-16)
(0.000404904 0.000143836 2.14785e-16)
(0.000456874 0.000185068 -2.03935e-16)
(-0.000324606 0.000159122 0)
(-0.000491004 0.000164703 0)
(-0.000460699 0.000177853 0)
(0.000450582 0.000175536 -2.12713e-16)
(0.000465122 0.000206267 0)
(0.000455975 0.000171712 0)
(-0.000493725 0.000214064 -2.99369e-16)
(7.77715e-05 0.000606571 2.1799e-16)
(-0.0004547 0.000214081 1.92282e-16)
(0.000478034 0.000146134 -2.15593e-16)
(-1.02589e-05 0.000322476 -6.1944e-17)
(-0.000463215 0.000180754 0)
(-0.00046104 0.000196935 2.99761e-16)
(-0.000441286 0.000211466 -1.80343e-16)
(5.32678e-05 0.000474737 1.08289e-16)
(0.00048809 9.22335e-05 0)
(0.000500361 0.000125119 1.14709e-16)
(0.000435116 0.00018658 1.77804e-16)
(-9.17213e-05 6.95019e-05 2.10735e-16)
(-0.000462745 0.000170461 -9.03947e-17)
(0.00045481 0.000180519 0)
(0.000282421 0.000106906 0)
(0.000393729 0.000118503 3.86496e-16)
(-0.000461275 0.000178072 0)
(0.000477702 0.000149526 -1.07231e-16)
(-0.000498601 0.000126855 1.26096e-16)
(-0.000464923 0.000177163 9.58136e-17)
(0.000440003 0.000176091 -1.9517e-16)
(-0.000533805 0.000199357 -1.35983e-16)
(-0.000444686 0.000188963 1.84902e-16)
(-0.000505166 0.000232569 1.0101e-16)
(-0.00034528 0.000137424 -1.08944e-16)
(-0.000465446 0.000175716 0)
(-0.000463688 0.000176272 0)
(-3.54729e-05 0.000232909 0)
(9.1933e-06 0.000604457 -2.50985e-16)
(-0.000490846 0.000169625 0)
(-0.000466291 0.000231028 -8.72319e-17)
(0.000450142 0.000171253 3.7617e-16)
(0.000431368 0.000183037 -1.11177e-16)
(0.000451093 0.000157668 3.79535e-16)
(0.000456055 0.000187706 -5.49164e-17)
(0.000451977 0.0001715 -5.5468e-21)
(-0.000459218 0.000185525 -4.91298e-17)
(-0.00046044 0.000180245 -9.63684e-17)
(-3.78846e-05 0.000711623 5.97403e-18)
(-0.000462092 0.00017841 -1.95299e-16)
(-0.000458979 0.000192382 -5.1504e-17)
(0.000429427 0.000186935 0)
(-0.000463644 0.000178359 -9.75886e-17)
(-0.000503132 0.000190018 -3.58929e-16)
(-0.000454457 0.000203892 -1.39397e-17)
(-0.000465511 0.000173813 0)
(-0.000469911 0.000150035 4.83504e-17)
(-0.000463283 0.000171519 -9.87684e-17)
(0.000490056 0.000216191 -2.08727e-16)
(-0.000459591 0.000182583 -9.94733e-17)
(6.84788e-05 0.000694054 6.96566e-18)
(0.000440555 0.00015924 2.44315e-17)
(-1.31241e-05 0.000676171 -1.98864e-16)
(-0.000512229 0.000219286 2.82358e-16)
(-0.000447497 0.000149671 -3.98536e-16)
(0.000451133 0.000173962 1.03056e-16)
(-0.000512644 0.000219549 1.25939e-16)
(6.63132e-05 0.000350511 8.11341e-17)
(-0.000458618 0.000181841 1.97983e-16)
(0.000439173 0.000148706 1.76673e-16)
(-5.06322e-06 0.000663439 0)
(-1.06117e-05 0.000578989 -2.83931e-16)
(-0.000460057 0.000190457 -1.57231e-16)
(0.000446297 0.00015203 -5.19593e-17)
(-5.23088e-06 0.00066166 7.90288e-19)
(0.000541584 0.000215668 9.76725e-17)
(-0.000425361 0.000171392 2.95303e-16)
(-0.000464731 0.00017657 -5.09893e-17)
(-0.000471573 0.000163464 0)
(-0.000479628 0.000173554 2.29036e-16)
(0.000445765 0.000180656 -2.02299e-16)
(-0.000460621 0.000180547 -9.68028e-17)
(0.000443356 0.000176551 0)
(-1.05192e-06 0.000658153 -2.01876e-16)
(-0.000502984 0.00019012 1.20772e-16)
(0.000518455 0.000464402 -3.66335e-16)
(0.000457533 0.000174507 0)
(-2.92458e-06 0.00065821 0)
(0.000469437 0.000188089 5.93859e-21)
(1.98895e-06 0.00065623 -2.02114e-16)
(1.04196e-06 0.000658121 4.01911e-16)
(-0.000459221 0.000180356 4.985e-17)
(-4.12222e-05 0.000678174 1.97711e-16)
(-1.73337e-06 0.000655798 0)
(-4.22792e-06 0.000658881 2.0116e-16)
(-0.000459567 0.0001792 0)
(0.000532412 0.000291263 0)
(2.1904e-06 0.000657171 0)
(-1.01313e-06 0.000657126 -2.01443e-16)
(-0.000458511 0.000188554 0)
(-2.37809e-06 0.00065756 4.0528e-16)
(-0.00046399 0.000175946 0)
(-9.5815e-07 0.000657533 -2.02423e-16)
(-0.000460104 0.000179379 -2.93187e-16)
(-1.14405e-06 0.000655355 0)
(-0.000455703 0.000189202 9.67041e-17)
(-0.000208855 0.00075138 -4.71378e-17)
(0.000485698 0.000222758 2.50262e-16)
(0.000503868 0.000188262 0)
(1.31887e-07 0.000657098 1.45301e-20)
(-2.57985e-06 0.000658044 -1.99393e-16)
(-0.000469891 0.000151301 -8.51762e-17)
(0.000439435 0.000197646 -2.05746e-16)
(0.000389207 0.000159311 0)
(0.000448684 0.000172892 3.10267e-16)
(-4.75636e-07 0.000657214 2.02003e-16)
(-0.000458756 0.000179792 0)
(-1.62106e-05 0.000664497 2.00567e-16)
(-4.88408e-07 0.00065566 0)
(-1.11715e-06 0.000656701 -2.04884e-16)
(-0.000461735 0.000179963 0)
(0.000452677 0.000200512 1.95269e-16)
(-0.000463295 0.000177247 2.68209e-21)
(1.46982e-07 0.000655459 2.02889e-16)
(0.000458271 0.000168245 -4.19356e-16)
(7.19185e-05 0.000383337 0)
(-2.37809e-06 0.00065798 0)
(0.000509427 0.000235585 1.46627e-16)
(0.000454552 0.000156959 0)
(-5.12516e-05 0.000705374 0)
(-0.000463599 0.00017529 -3.52295e-16)
(-1.76983e-05 0.000673252 0)
(-0.000460544 0.000180117 9.75585e-17)
(-0.000390333 0.000333647 -5.25383e-17)
(-0.000458392 0.000188667 2.01115e-16)
(1.6109e-07 0.00065606 -4.04632e-16)
(-0.000469961 0.000174484 5.4158e-17)
(-0.000455576 0.000189336 1.92966e-16)
(-8.05118e-07 0.000656415 0)
(-1.57214e-06 0.000655403 -1.98252e-16)
(0.000421595 0.000140384 0)
(2.18958e-07 0.000656856 -2.0421e-16)
(4.38501e-07 0.000656157 0)
(-3.09062e-05 0.000682322 2.01279e-16)
(-1.42408e-06 0.000582162 -2.27208e-16)
(-0.000458647 0.000203421 1.17409e-16)
(-9.49232e-06 0.000665663 9.81747e-20)
(0.000326482 9.59856e-05 0)
(-0.000478113 0.000173869 7.99862e-17)
(-0.000453073 0.000191564 4.68859e-17)
(1.41558e-06 0.000655127 4.05021e-16)
(-2.60463e-06 0.000657614 2.01605e-16)
(-0.000469681 0.000182476 -4.66006e-16)
(4.15222e-07 0.000656303 2.02686e-16)
(0.000410846 0.00012633 6.57341e-21)
(-3.39473e-06 0.000656379 2.00605e-16)
(-0.000465161 0.000176771 0)
(-0.000457629 0.000184186 5.12187e-17)
(-3.34078e-07 0.000656531 -1.45962e-20)
(0.000447781 0.000227534 2.10085e-16)
(-0.000462268 0.000180815 -1.02842e-16)
(-0.000455954 0.000188506 -8.99007e-17)
(-1.6495e-06 0.000657255 -2.01528e-16)
(0.000448837 0.000176223 3.516e-18)
(-4.83622e-08 0.000656795 -1.46e-20)
(-0.000467155 0.000176244 4.8087e-17)
(2.10241e-06 0.000655604 0)
(-0.000463707 0.000175024 0)
(-3.84325e-06 0.000657288 -2.01469e-16)
(3.32927e-07 0.000656782 2.02269e-16)
(0.000446449 0.00018663 -2.45282e-17)
(-0.000471737 0.000163233 2.19723e-16)
(-3.50569e-06 0.000656483 1.99775e-16)
(8.0636e-07 0.000655475 0)
(-0.000459288 0.000186827 0)
(-0.00045741 0.000188385 1.53404e-16)
(-0.000473486 0.000148267 0)
(-2.46979e-05 0.000403589 -1.0831e-16)
(-1.20572e-07 0.000656746 2.02713e-16)
(-0.00045631 0.000187747 -1.45374e-16)
(-0.00045937 0.000181461 0)
(-0.000457559 0.000173936 5.30133e-17)
(-6.0993e-06 0.000658675 1.9701e-16)
(2.47024e-08 0.000655755 -1.4673e-20)
(-0.000461081 0.000176201 -5.14133e-17)
(0.000267158 3.21889e-05 -2.18995e-16)
(-5.86808e-06 0.000660162 -2.00429e-16)
(-1.92928e-06 0.000657499 2.02107e-16)
(8.79346e-07 0.000655892 2.02985e-16)
(-1.34826e-07 0.000658136 -2.00159e-16)
(0.000547971 0.00027878 -1.9205e-16)
(-3.96812e-06 0.000656471 -2.01112e-16)
(-0.000464395 0.000175471 0)
(-0.000461844 0.000178564 0)
(0.000445145 0.000177158 0)
(-1.01976e-06 0.000655689 -2.03573e-16)
(-0.000455654 0.00018898 2.48145e-16)
(0.000447243 0.000165556 -1.57153e-16)
(-0.000438672 0.000178303 2.71356e-16)
(-0.000460515 0.000179525 -1.96918e-16)
(-0.000461174 0.000178365 -1.01264e-16)
(-0.000497523 0.00023412 -1.00456e-16)
(-2.027e-06 0.000655958 -4.05799e-16)
(1.78952e-06 0.000655798 8.46297e-20)
(-0.00045944 0.000191849 -5.80054e-17)
(-0.00046144 0.000184472 4.59964e-17)
(-0.000461365 0.000179001 -5.05273e-17)
(2.66207e-06 0.000656605 -2.0262e-16)
(5.16574e-07 0.000655789 4.10232e-16)
(-3.25636e-06 0.000656485 -2.02964e-16)
(5.50595e-07 0.000656471 -7.9538e-19)
(-0.000460586 0.000182023 4.913e-17)
(-2.3198e-06 0.000656016 0)
(3.15606e-06 0.000656267 -2.03787e-16)
(2.09248e-06 0.000655562 2.02753e-16)
(2.73429e-06 0.00065665 3.50529e-20)
(-0.000461098 0.000175924 1.02071e-16)
(-3.6691e-06 0.0006601 0)
(-0.000462341 0.000175819 -2.00618e-16)
(-0.000479668 0.000172398 0)
(0.000452178 0.000172712 -2.22462e-16)
(-2.97435e-07 0.000656163 -1.57907e-18)
(0.000428903 0.000175324 1.97905e-16)
(4.17924e-07 0.000656098 -1.45348e-20)
(-3.96217e-05 0.000673449 0)
(-2.68164e-05 0.000665037 -1.99274e-16)
(-0.000462803 0.00017634 0)
(-0.000466004 0.000175835 -9.86572e-17)
(4.54173e-06 0.000655732 0)
(-0.000458879 0.000177556 -2.14076e-16)
(-0.000460932 0.000180314 -1.06356e-16)
(0.000449811 0.000179632 2.13744e-16)
(2.54443e-07 0.000656054 -2.03087e-16)
(-3.80309e-06 0.000656502 -2.03163e-16)
(-0.000463204 0.00018172 5.55543e-17)
(-7.48208e-07 0.000656133 -2.0031e-16)
(-0.000456809 0.000173642 3.1159e-16)
(-3.12562e-06 0.000655884 -2.02294e-16)
(9.26326e-07 0.000656264 -1.45593e-20)
(-0.000466434 0.000207993 -2.36563e-16)
(-4.18602e-06 0.000656397 2.00633e-16)
(0.000452929 0.000170956 0)
(-0.000460275 0.000180143 -5.02517e-17)
(-2.14559e-07 0.000656029 3.18897e-18)
(-0.000464033 0.000173729 1.00776e-16)
(-1.16677e-07 0.000655799 -1.60076e-18)
(-0.000460528 0.00017675 5.04611e-17)
(-0.000439862 0.000160267 0)
(1.75006e-06 0.000656337 -1.46333e-20)
(-0.000502043 0.000212082 3.00921e-16)
(4.06154e-07 0.000656633 2.04474e-16)
(0.000425283 0.000208855 -5.87782e-17)
(-0.000453417 0.000194966 1.95208e-16)
(-1.36188e-07 0.000656198 2.04619e-16)
(0.000335128 0.000133216 2.15028e-16)
(-8.52539e-07 0.000656256 2.03324e-16)
(5.45746e-07 0.000656121 3.17275e-18)
(0.00038408 0.00014078 2.27235e-16)
(0.000410723 0.000146397 -2.12543e-16)
(0.000466847 0.000182464 0)
(-0.000504269 0.00020585 0)
(-3.84382e-06 0.000656333 -1.5911e-18)
(0.000426744 0.000163913 2.79974e-16)
(-3.75658e-06 0.000655909 -1.57975e-18)
(-0.000461436 0.00017886 -9.82439e-17)
(0.000424904 0.000138625 0)
(3.47899e-06 0.000656093 -4.05561e-16)
(5.86767e-07 0.000656091 -4.08077e-16)
(-0.000459153 0.000185283 0)
(-0.000461599 0.000175821 0)
(4.17631e-07 0.000656607 -4.05527e-16)
(-1.3095e-05 0.000662834 0)
(-0.0004565 0.000192529 -1.95482e-16)
(-8.77739e-06 0.000659846 -4.00522e-16)
(-0.000419854 0.000155302 0)
(0.000479124 0.000142223 5.24857e-17)
(2.0006e-08 0.000655384 -1.60743e-18)
(1.51991e-06 0.000656793 2.04315e-16)
(0.000358925 0.000223991 -7.03686e-18)
(1.82457e-07 0.000656066 -2.04797e-16)
(-0.000464231 0.000171414 1.5744e-16)
(-0.000505873 0.000231181 1.38986e-16)
(-4.13486e-06 0.000656222 2.01872e-16)
(-0.000463792 0.000173214 1.4575e-16)
(-7.19364e-07 0.00065638 2.04817e-16)
(-3.8827e-06 0.000655993 -2.02609e-16)
(-4.35081e-06 0.000656135 -2.01912e-16)
(-0.000457435 0.00018607 0)
(-0.00046263 0.000173877 -4.9869e-17)
(-4.60928e-07 0.000655968 -7.98799e-19)
(3.97132e-06 0.000656267 0)
(-0.000456785 0.000186335 1.98692e-16)
(-0.000461113 0.000174032 0)
(5.94716e-07 0.00065617 -2.03405e-16)
(-3.22976e-06 0.000658174 3.16237e-18)
(0.000449105 0.000174346 -2.14738e-16)
(6.04376e-07 0.000656133 -4.10861e-16)
(-0.00049553 0.000189328 3.41582e-16)
(-2.48479e-07 0.000656138 0)
(-1.8624e-07 0.000656216 2.02764e-16)
(-1.34683e-07 0.000656206 0)
(3.5959e-09 0.000656068 2.02825e-16)
(5.07715e-07 0.000656062 -2.02311e-16)
(0.000372883 0.000150168 1.21379e-16)
(1.70569e-07 0.000655926 2.02454e-16)
(3.01276e-07 0.000657562 -1.46606e-20)
(-3.3436e-10 0.000656126 2.04807e-16)
(-4.51994e-06 0.000656243 4.04656e-16)
(-0.000462396 0.000176862 0)
(-0.000462451 0.000177597 -5.25284e-17)
(-3.94987e-06 0.00065608 0)
(-9.22124e-08 0.000656164 0)
(-4.84548e-07 0.00065587 -2.06617e-16)
(3.96887e-06 0.000656449 2.03103e-16)
(3.30453e-06 0.000656422 2.03868e-16)
(-0.000461071 0.000180498 2.57701e-16)
(3.54461e-06 0.000656149 2.03299e-16)
(-2.55442e-07 0.000656325 -2.04798e-16)
(-6.195e-07 0.00065619 0)
(-1.75956e-07 0.00065613 -1.47065e-20)
(-0.000462165 0.000177922 1.00378e-16)
(3.9328e-06 0.000656228 0)
(3.7375e-06 0.000655972 2.03441e-16)
(-1.58026e-06 0.000657395 -2.05261e-16)
(-0.000465449 0.000173481 0)
(-1.26676e-09 0.000656144 0)
(0.000453268 0.000174512 -2.13235e-16)
(-7.16207e-08 0.000656598 1.59883e-18)
(-6.11791e-08 0.000656769 -3.98547e-19)
(-3.17079e-06 0.00065559 -7.92085e-19)
(-4.39532e-06 0.000656015 1.46016e-20)
(-3.51652e-06 0.000655702 7.92732e-19)
(-0.000469792 0.000212996 -1.24099e-16)
(-4.21344e-06 0.000655651 2.03615e-16)
(2.20864e-06 0.0006563 0)
(-4.13434e-06 0.000655752 2.02167e-16)
(-4.19623e-06 0.000655893 -2.02513e-16)
(-4.43587e-06 0.000656175 -2.03454e-16)
(-0.000557512 0.000456648 -3.08471e-16)
(-0.000105614 0.000131245 -3.84301e-16)
(4.06576e-06 0.000656286 -2.03718e-16)
(-3.98978e-07 0.000656059 -2.03077e-16)
(4.49607e-08 0.000656202 -2.0303e-16)
(3.65986e-06 0.000655968 2.03503e-16)
(-0.000464569 0.000175254 -2.02477e-16)
(-4.69191e-06 0.000655917 2.02145e-16)
(-4.12492e-07 0.000656233 -2.02695e-16)
(-3.03327e-06 0.000657506 -4.03176e-16)
(-3.29646e-07 0.000656041 -1.60333e-18)
(4.34223e-06 0.000656044 2.02733e-16)
(0.000449793 0.0001723 2.13269e-16)
(-1.37471e-06 0.000656464 -2.02734e-16)
(2.54854e-07 0.000656137 -1.45905e-20)
(0.000479421 0.000197355 -2.63011e-16)
(-1.41071e-07 0.000656105 0)
(-2.72726e-07 0.000656129 0)
(-4.68071e-06 0.000656033 -4.06263e-16)
(-0.000462332 0.000177317 1.00718e-16)
(9.04379e-08 0.000655739 -4.00502e-19)
(-5.42912e-06 0.000656253 2.12284e-19)
(0.000451999 0.000171584 1.41757e-17)
(-4.98396e-06 0.000656592 2.0308e-16)
(4.94021e-06 0.000656271 2.03053e-16)
(4.53503e-06 0.000656135 -2.02905e-16)
(1.12653e-06 0.000656112 -2.03476e-16)
(-5.30749e-06 0.000656308 1.45951e-20)
(-0.00047911 0.000167928 -2.15479e-16)
(-0.000385804 0.000144962 2.65483e-16)
(-5.25499e-07 0.000655462 -1.46745e-20)
(-3.17234e-07 0.000656041 -2.02594e-16)
(-0.000458425 0.000186849 5.11246e-17)
(4.16898e-07 0.000656216 -1.47069e-20)
(-4.89175e-06 0.0006558 8.05168e-19)
(4.91115e-06 0.000656032 -4.06052e-16)
(2.19459e-06 0.000655396 2.03838e-16)
(4.1593e-06 0.00065587 -2.03836e-16)
(4.09721e-06 0.000656007 -2.03831e-16)
(4.90525e-06 0.000656116 2.0313e-16)
(4.07009e-06 0.00065593 1.98683e-19)
(4.87216e-06 0.000656143 0)
(0.000453345 0.000171427 0)
(-3.95537e-06 0.000656204 2.04493e-16)
(-3.21567e-07 0.000656893 0)
(8.82482e-07 0.000656653 2.03741e-16)
(4.8802e-06 0.000656111 0)
(4.85742e-06 0.000656181 2.03198e-16)
(4.92493e-06 0.000656058 -9.91935e-20)
(5.44017e-07 0.000656608 1.99368e-16)
(4.42734e-06 0.000656412 0)
(-1.18166e-06 0.000656791 0)
(-4.09035e-06 0.000656709 -2.04713e-16)
(-0.000461041 0.000178599 -2.46499e-21)
(4.32199e-06 0.000656107 0)
(-9.7758e-06 0.000667324 0)
(4.25518e-06 0.00065612 0)
(-0.000451658 0.000172118 1.57173e-16)
(3.53355e-07 0.0006561 -2.02847e-16)
(-3.05709e-06 0.0006575 2.04686e-16)
(4.45083e-06 0.000656522 -9.94071e-20)
(-0.000450018 0.000189708 5.56776e-17)
(-0.000458855 0.000186162 -5.0833e-17)
(3.90119e-06 0.000656376 -2.03825e-16)
(-1.11958e-06 0.000655115 0)
(-1.6662e-07 0.000657331 -2.03905e-16)
(3.94104e-06 0.000656436 1.46481e-20)
(4.9154e-06 0.000656011 -2.03664e-16)
(-6.31992e-07 0.000654793 4.05051e-16)
(0.000438921 0.000141472 -3.65601e-16)
(0.000453131 0.000176281 -4.30928e-16)
(-6.52267e-07 0.000656357 4.0726e-16)
(0.000446582 0.000175536 0)
(3.85241e-06 0.00065644 0)
(4.98596e-06 0.000655938 -3.97006e-19)
(-0.000473574 0.000187798 -1.84026e-16)
(-0.000460192 0.000188766 1.05907e-16)
(3.10883e-07 0.000655859 -1.00206e-19)
(3.8838e-06 0.000656502 2.03876e-16)
(4.2802e-07 0.000656136 -2.03135e-16)
(-0.000420462 0.000402752 1.02779e-16)
(3.67914e-06 0.00065642 7.96866e-19)
(-4.7764e-06 0.000656474 2.03307e-16)
(-3.92042e-07 0.000657071 2.04077e-16)
(-0.000525801 0.000269298 -2.01505e-16)
(3.79983e-06 0.000656642 0)
(-2.70287e-07 0.000656202 4.01584e-19)
(-9.87289e-07 0.000656857 -2.0311e-16)
(-0.00046262 0.000175401 0)
(0.000474964 0.000133217 3.85792e-16)
(-0.000456228 0.000190915 5.3669e-17)
(3.63359e-06 0.000656491 -7.96997e-19)
(5.1664e-07 0.000656347 -2.03834e-16)
(-4.24905e-06 0.000655749 -2.03662e-16)
(-0.000460346 0.000185027 3.04102e-16)
(3.65654e-06 0.000656714 -2.04095e-16)
(-5.61594e-06 0.000655988 7.9304e-19)
(2.93948e-07 0.000655844 2.00596e-19)
(4.54766e-06 0.000655981 0)
(-2.28282e-07 0.000657162 0)
(4.59599e-06 0.000655923 0)
(4.78772e-07 0.000656399 0)
(-0.000461173 0.000175584 -5.05817e-17)
(-5.00611e-06 0.000655741 0)
(-3.26101e-07 0.000656163 0)
(0.000486622 0.000229396 1.57513e-16)
(3.56183e-07 0.000656377 0)
(-2.6787e-05 0.000682772 0)
(-1.33426e-07 0.000657187 4.0802e-16)
(2.4346e-07 0.000655848 0)
(0.000449678 0.000164513 -4.81155e-17)
(0.00045193 0.000175542 0)