/*--------------------------------*- C++ -*----------------------------------*\
  =========                 |
  \\      /  F ield         | OpenFOAM: The Open Source CFD Toolbox
   \\    /   O peration     | Website:  https://openfoam.org
    \\  /    A nd           | Version:  12
     \\/     M anipulation  |
\*---------------------------------------------------------------------------*/
FoamFile
{
    format      ascii;
    class       surfaceScalarField;
    location    "0.27";
    object      phi;
}
// * * * * * * * * * * * * * * * * * * * * * * * * * * * * * * * * * * * * * //

dimensions      [0 3 -1 0 0 0 0];

internalField   nonuniform List<scalar> 
6438
(
-4.36315e-08
5.47755e-06
-5.43391e-06
-4.70501e-08
6.36363e-06
-6.31658e-06
-5.97129e-06
-1.01871e-06
6.99e-06
5.6635e-06
-6.21935e-06
5.55842e-07
8.69856e-06
-6.79737e-06
-1.90119e-06
1.96248e-06
6.73608e-06
-6.79259e-06
8.21305e-07
-5.88196e-06
5.83491e-06
6.36244e-06
-7.59142e-06
1.22898e-06
5.90464e-06
-6.92877e-06
1.02413e-06
-5.70973e-06
6.95347e-06
-1.24373e-06
1.36938e-06
-6.25425e-06
4.88487e-06
-7.0803e-06
1.37057e-06
5.42663e-06
2.49239e-06
-7.91902e-06
5.10137e-06
-5.145e-06
-2.88558e-07
5.97782e-06
-5.68927e-06
-7.532e-06
7.30623e-06
2.25762e-07
-5.70301e-06
6.93127e-06
-1.22826e-06
-7.08068e-06
1.37767e-06
2.24764e-06
4.74374e-06
-6.99138e-06
-1.63564e-06
-1.06752e-06
2.70316e-06
-3.47005e-07
6.25969e-06
-5.91269e-06
-5.81014e-06
-9.40882e-07
6.75102e-06
-7.11572e-06
3.11748e-06
3.99825e-06
-6.16586e-06
5.81885e-06
-5.47589e-06
6.65683e-06
-1.18093e-06
-6.70734e-06
8.97199e-07
6.34634e-06
-4.97696e-06
-5.76544e-06
-1.08623e-06
6.85167e-06
-6.98173e-06
1.50584e-06
5.33295e-06
-6.71651e-06
1.38355e-06
2.92707e-08
-6.53566e-06
6.50639e-06
6.39686e-06
-6.43855e-06
4.16855e-08
-6.33854e-06
1.06264e-06
5.2759e-06
-8.55643e-06
1.38745e-06
7.16898e-06
6.0187e-06
-5.98943e-06
6.07471e-06
-4.11203e-07
3.94062e-06
5.52184e-06
-9.46247e-06
-1.96185e-06
7.38848e-06
-5.6509e-06
6.21111e-06
-5.6021e-07
-6.54969e-06
6.49139e-06
5.82987e-08
-2.7158e-06
4.96344e-06
5.85412e-06
5.05245e-08
-7.03909e-06
6.89504e-06
1.44049e-07
6.29614e-06
-9.63184e-07
-4.75205e-06
4.46349e-06
-8.18545e-06
1.38808e-06
6.2255e-06
5.9814e-07
-6.82364e-06
-4.82625e-06
-1.51229e-06
-8.90225e-07
-5.82215e-06
6.60737e-06
-7.85221e-07
-4.32049e-06
6.24437e-06
-1.92388e-06
6.27918e-06
-6.27918e-06
1.97564e-06
4.76196e-06
6.25835e-07
-5.38779e-06
2.79444e-06
1.36344e-06
-4.15788e-06
5.31464e-06
1.12706e-06
-6.4417e-06
5.1352e-06
-2.01773e-06
-2.97673e-06
-5.20872e-06
-6.19372e-08
5.53646e-06
-5.47452e-06
-6.82682e-06
6.82682e-06
-7.07531e-06
7.15054e-06
-7.52219e-08
2.87464e-07
5.25477e-06
-5.54223e-06
1.95271e-08
-6.44122e-06
6.42169e-06
5.97819e-06
-5.95866e-06
-6.51893e-06
7.53484e-07
-6.53445e-06
-5.04648e-07
-5.62113e-06
6.18172e-06
-5.60585e-07
6.22067e-07
5.3828e-06
-6.00487e-06
-6.61199e-06
6.3579e-06
2.5409e-07
6.44356e-06
-6.44356e-06
5.98479e-06
3.77645e-07
-3.93388e-06
-2.99489e-06
5.6135e-06
1.18363e-06
-6.79713e-06
-5.50453e-06
-1.04517e-06
4.89149e-06
3.77669e-06
-8.66818e-06
-7.57147e-06
4.85566e-06
-4.82608e-06
-2.74538e-06
6.67885e-06
-1.06535e-06
3.97615e-06
-1.18171e-06
5.40141e-06
6.21483e-07
-6.02289e-06
-6.66145e-06
-4.13865e-07
-9.39611e-07
-1.62427e-06
-5.20255e-06
7.22387e-06
-7.22387e-06
-4.77119e-06
-1.8408e-06
-4.32085e-07
-8.12435e-06
-6.23289e-06
6.20778e-06
2.51076e-08
2.24653e-07
-6.31015e-06
6.08549e-06
-6.9326e-07
6.09467e-06
6.23722e-06
1.59639e-07
-6.5158e-06
-1.0162e-06
-6.58273e-06
6.75217e-06
-1.69443e-07
6.86004e-06
-3.84028e-06
-3.01975e-06
6.16112e-06
-5.93646e-06
1.25009e-07
6.90293e-06
-3.51285e-06
-3.39007e-06
3.92933e-06
2.93071e-06
6.34031e-06
-6.34031e-06
-4.86273e-06
6.97775e-06
-2.11502e-06
-6.11303e-06
2.90881e-07
-8.3504e-07
-4.95268e-06
5.78772e-06
-5.72846e-06
2.23927e-07
-6.14057e-06
1.27784e-06
5.29984e-06
1.1731e-06
-6.47294e-06
-3.62724e-07
5.66257e-06
-5.53362e-06
6.39395e-06
-8.60322e-07
-5.88035e-06
2.29453e-07
4.04488e-06
2.85805e-06
6.11985e-06
-1.23497e-06
2.6267e-07
6.01651e-06
-5.28395e-06
-4.44502e-07
5.52581e-06
1.17615e-06
-6.70196e-06
-3.05352e-06
-2.63669e-06
5.6902e-06
4.02172e-06
-5.03933e-07
-3.51778e-06
-6.53566e-06
1.32461e-06
6.55673e-06
-7.88134e-06
-3.03804e-06
1.4024e-06
6.53993e-06
1.16902e-07
7.08176e-06
-3.66673e-06
-3.41502e-06
2.37187e-06
4.70989e-06
6.62145e-06
-1.09564e-06
8.07381e-06
-4.13318e-06
-5.98201e-06
1.44236e-08
5.96758e-06
-8.55463e-06
8.7708e-07
7.67755e-06
-9.80278e-08
-5.93718e-06
6.0352e-06
6.53216e-06
3.62881e-07
-5.03705e-06
4.97511e-06
-6.01105e-06
6.1321e-06
-1.21043e-07
6.08643e-06
-6.18446e-06
6.27905e-06
-6.27905e-06
6.18707e-06
1.76557e-07
6.19904e-06
-1.43708e-06
6.11653e-06
-5.82907e-06
-5.38646e-06
4.55141e-06
5.5193e-08
5.9349e-06
-5.99009e-06
6.97097e-06
-4.88625e-06
-2.08472e-06
-6.44122e-06
-9.20916e-08
7.18591e-08
-5.95382e-06
-5.96867e-06
3.47533e-07
6.90837e-08
5.94962e-06
5.75762e-06
-5.13555e-06
-5.93799e-06
4.04362e-07
6.02561e-06
-1.71497e-07
-2.1484e-07
5.24287e-06
-5.02803e-06
4.12066e-06
2.85032e-06
-6.17642e-06
1.32411e-06
4.85231e-06
6.29231e-06
-4.79423e-08
-8.32378e-06
7.60139e-07
7.56364e-06
-8.42101e-08
-5.90583e-06
5.99004e-06
3.92611e-06
9.56081e-08
3.74218e-07
5.91809e-06
5.85881e-06
4.87534e-07
6.05053e-06
-6.13474e-06
-6.30511e-06
-2.10694e-07
6.43024e-06
-6.90625e-06
4.7601e-07
-5.75139e-06
-2.30615e-07
-6.99873e-06
3.03464e-06
3.96409e-06
5.48e-09
6.05181e-06
2.0788e-07
-5.69404e-06
6.62084e-06
-9.26796e-07
-6.28268e-06
5.40836e-06
8.74324e-07
-8.48958e-07
2.19336e-06
-1.3444e-06
-1.96716e-06
-5.01457e-06
-6.31015e-06
-4.98874e-08
6.02807e-06
1.84473e-06
5.13302e-06
-1.00907e-07
-6.13729e-06
-2.85655e-08
-1.29286e-07
-6.71156e-06
5.67237e-06
1.03919e-06
-3.95655e-07
4.99903e-06
9.85762e-07
9.81039e-06
-4.28855e-06
-2.07606e-06
-5.00462e-06
6.15425e-06
8.29705e-08
-5.28587e-06
2.23235e-06
-2.37069e-06
-3.74569e-06
6.11638e-06
-2.117e-06
-4.9633e-06
-3.44801e-06
8.33949e-06
-6.34315e-06
2.05863e-07
-5.99014e-06
6.01326e-06
-2.31209e-08
-4.95267e-06
4.73783e-06
-7.22064e-08
-5.87079e-06
5.94299e-06
-6.45296e-06
1.09803e-07
5.3839e-06
-6.40583e-06
1.02193e-06
5.99785e-06
-6.07006e-06
5.36042e-06
-2.03016e-06
-3.33026e-06
-8.10535e-06
2.86986e-06
5.23549e-06
5.49776e-06
5.2785e-07
4.54157e-06
2.76467e-06
1.32833e-06
5.89553e-06
-1.57382e-06
-5.65005e-06
-6.52823e-06
6.47132e-06
5.69168e-08
-6.51101e-06
-1.72255e-08
-6.47697e-06
-3.40386e-08
1.8359e-08
1.68375e-06
-9.4353e-06
7.75156e-06
-7.01055e-06
8.33516e-06
5.53597e-06
-5.48078e-06
5.91405e-06
2.47063e-07
4.82823e-07
4.8776e-06
-5.93718e-06
-5.38323e-06
5.35706e-06
6.69246e-07
-6.02631e-06
-3.11008e-08
-1.27667e-06
9.42245e-06
-8.14577e-06
8.93885e-06
-6.44646e-06
-2.70987e-06
4.07331e-06
-1.71803e-06
-5.2807e-06
-4.69331e-06
-3.41204e-06
-5.93618e-06
-3.68928e-07
-5.97723e-06
5.97639e-06
8.4018e-10
-9.45783e-07
5.6135e-06
-4.66772e-06
-6.41385e-06
6.45903e-06
-4.51815e-08
-6.34697e-06
-6.68784e-08
-8.1606e-06
5.07374e-07
7.65322e-06
-5.70553e-06
-3.70131e-07
6.07566e-06
6.3897e-06
6.93362e-08
-1.13613e-06
-6.98328e-06
2.54226e-06
4.44103e-06
4.07604e-08
-3.69901e-06
-3.28427e-06
-8.72714e-08
-6.52996e-08
-5.83804e-06
5.90334e-06
-6.00492e-06
2.99392e-07
5.4267e-06
7.27551e-07
6.25427e-06
-5.9916e-06
5.94194e-06
-6.00724e-06
5.91566e-06
1.70768e-07
2.90666e-06
6.03219e-06
6.18063e-06
-1.1816e-06
-4.8478e-07
-8.06985e-06
-3.54482e-07
4.877e-06
-4.52252e-06
-6.31679e-06
-3.01819e-08
-6.31593e-06
-8.63279e-10
6.36715e-06
-6.32173e-06
-4.54219e-08
6.29723e-06
6.99169e-08
-5.90583e-06
1.45757e-06
-2.00226e-06
5.44693e-07
-7.13072e-06
4.17059e-06
2.96013e-06
3.19663e-06
-6.40726e-06
3.21063e-06
-5.59265e-06
-5.20385e-07
-5.95732e-06
5.92779e-06
2.95339e-08
-6.19914e-06
5.9781e-06
2.21037e-07
-4.94823e-07
6.34378e-06
-5.84896e-06
-6.15496e-06
1.50038e-07
-6.83366e-06
8.51741e-06
-6.36089e-07
-5.54034e-06
-6.42447e-06
5.92965e-06
-5.03462e-06
-4.63699e-07
5.49832e-06
-4.72156e-06
6.25645e-06
4.07805e-08
-4.28837e-06
-1.14693e-06
1.27178e-06
-1.24853e-07
-5.94733e-08
2.29502e-07
-8.15239e-06
7.92289e-06
-4.57167e-06
-2.22092e-06
-6.34729e-06
6.21661e-06
1.30683e-07
-6.24968e-06
-9.76136e-08
-2.24872e-06
1.39976e-06
5.90507e-06
1.45459e-07
6.30772e-06
-1.05296e-06
6.24321e-06
-6.23562e-06
-7.58248e-09
-1.69106e-08
-5.79347e-06
5.81039e-06
6.53378e-06
-4.68905e-06
-7.8524e-08
6.48661e-06
3.65768e-06
-1.01443e-05
6.42771e-06
-6.42771e-06
9.92065e-07
5.83475e-06
-2.26796e-06
-4.01122e-06
-5.12198e-06
6.17252e-06
-1.05054e-06
-6.85186e-07
-5.51395e-06
5.91209e-06
-5.929e-06
-5.66066e-06
9.71197e-08
5.56354e-06
1.08672e-06
-5.73786e-06
4.65115e-06
-5.94048e-06
5.87947e-06
6.10108e-08
3.79412e-06
2.73967e-06
-1.85499e-07
-9.61427e-07
-3.56517e-06
-3.56555e-06
-1.36229e-06
-6.34125e-06
6.47206e-07
-5.87079e-06
5.3196e-06
1.11064e-06
-4.94377e-06
-5.54949e-06
5.14867e-07
-5.66287e-06
3.29218e-06
6.42481e-06
-5.22354e-06
-1.20127e-06
1.0981e-06
5.15617e-06
-4.55152e-06
-2.15581e-06
-6.28595e-06
6.28595e-06
6.28645e-06
-6.04466e-06
-2.41794e-07
3.6261e-07
-5.95526e-06
-5.02935e-06
5.68537e-06
-6.56014e-07
-1.99364e-06
9.26125e-07
5.85732e-06
-5.88584e-06
2.85173e-08
6.14998e-06
6.66286e-08
6.21549e-06
7.09581e-08
9.39327e-06
-5.99382e-06
-1.61136e-07
-5.25874e-06
4.31295e-06
5.89731e-06
1.00539e-07
6.19647e-06
-6.16097e-06
-3.54963e-08
-5.32086e-08
-8.56414e-08
6.46859e-07
-5.31317e-06
4.66631e-06
-1.87014e-07
-8.13677e-06
1.94599e-06
4.39509e-07
-5.46886e-06
-5.92825e-06
5.83791e-06
9.03428e-08
5.91558e-06
-5.31676e-07
-2.76343e-06
-3.67511e-06
-8.28722e-06
6.14334e-07
-3.3242e-06
-9.84185e-07
2.47008e-08
6.09414e-06
-5.42489e-06
-5.83804e-06
-5.84763e-06
1.52229e-07
5.6954e-06
8.25559e-06
1.16686e-06
4.75745e-06
2.39308e-06
5.75747e-06
-2.56084e-06
6.01363e-06
-3.41262e-07
1.37895e-05
-1.01318e-05
-9.4353e-06
-3.0236e-06
-3.25908e-06
-7.60892e-08
6.41001e-06
-6.00538e-06
-4.04634e-07
6.07521e-06
1.40288e-07
7.02947e-07
-5.82492e-06
-4.32193e-06
4.96879e-06
5.89084e-06
5.10996e-08
4.62743e-06
2.05142e-06
6.18e-06
2.3001e-07
6.17423e-06
-6.08567e-06
-8.85517e-08
-2.77919e-06
-3.93731e-06
-2.78037e-07
5.6864e-06
1.0581e-07
-6.54937e-06
5.11969e-06
-4.03297e-06
-8.57687e-08
1.29567e-07
4.99268e-06
-5.42244e-06
4.29764e-07
9.12276e-07
5.26024e-06
8.37935e-06
-8.14985e-06
2.9158e-06
3.69157e-06
-5.91305e-06
5.84357e-06
6.94733e-08
-1.36505e-07
-3.43609e-06
1.88055e-06
1.55555e-06
-6.15621e-08
6.42436e-06
-6.42436e-06
7.25443e-06
-4.20559e-06
-3.04884e-06
-5.32633e-06
-8.93019e-07
4.49098e-06
2.13047e-06
6.14472e-06
3.52847e-08
-5.79347e-06
5.74814e-06
3.64805e-08
-5.78462e-06
4.70678e-06
6.54937e-06
-6.50639e-06
1.66076e-07
7.64836e-06
-6.77128e-06
5.92307e-06
-6.31081e-06
5.88101e-06
-1.32868e-07
5.30891e-06
-5.74448e-06
5.71419e-06
3.02959e-08
2.69038e-07
4.60858e-06
-4.87762e-06
-5.2283e-06
4.31793e-06
-3.9182e-07
5.46879e-06
7.42322e-07
-5.22534e-08
-5.0551e-06
-8.82889e-07
-7.5684e-06
4.78921e-06
8.01575e-09
-5.75941e-06
-6.13356e-06
-2.90916e-07
8.21619e-06
-4.43949e-06
5.90412e-08
-1.06263e-06
6.53281e-06
-5.47018e-06
-2.79108e-06
-6.45012e-07
5.72204e-06
-5.78398e-06
6.19404e-08
-5.92307e-06
5.87208e-06
2.54675e-06
3.6393e-06
-6.18605e-06
6.15742e-06
-1.16474e-06
5.1179e-07
5.46603e-06
6.03848e-06
5.82362e-07
6.58663e-07
7.98908e-07
-6.42169e-06
1.42643e-07
-5.09864e-06
5.80159e-06
-2.9529e-06
3.56723e-06
5.45266e-07
-5.35712e-06
4.81186e-06
-4.31735e-08
1.14018e-07
-5.34462e-06
-6.07735e-06
5.96615e-06
1.11208e-07
-5.83056e-06
6.07015e-07
3.80372e-06
3.45071e-06
-3.28105e-06
6.72822e-06
-3.44717e-06
6.74206e-06
-6.29426e-06
-4.47803e-07
1.67355e-07
4.15057e-06
-5.78575e-06
-6.18754e-08
5.87239e-06
8.61952e-09
2.90413e-06
-1.02358e-06
7.47532e-06
-6.71518e-06
5.36118e-06
8.20537e-07
3.38404e-07
-5.9626e-06
9.07497e-07
9.15662e-08
-5.19021e-06
6.65857e-06
-5.38073e-06
5.42876e-06
-3.30466e-07
-5.16762e-06
5.49809e-06
-5.84396e-06
6.08549e-06
-7.2229e-08
-8.85312e-06
7.07345e-07
-3.74043e-08
5.73256e-06
1.11014e-07
-5.41377e-06
-5.94033e-06
5.91533e-06
2.50036e-08
7.10734e-06
-4.12684e-06
-2.9805e-06
-4.98536e-06
-4.48487e-07
5.43385e-06
-1.34492e-08
-5.87559e-06
1.26333e-07
-6.34975e-07
6.2747e-06
-5.63973e-06
-5.75252e-06
5.78104e-06
-8.34761e-06
-1.21885e-06
-8.0753e-06
7.87305e-06
2.02246e-07
4.6097e-06
2.34377e-06
5.396e-06
4.83718e-07
-5.87972e-06
5.73372e-06
-2.35958e-07
4.62334e-06
2.30793e-06
-4.09233e-06
1.30125e-06
-5.79437e-06
5.03412e-06
-5.72738e-06
-7.77951e-06
7.75126e-06
2.82559e-08
7.02868e-06
-5.64122e-06
5.73141e-06
-1.7221e-08
3.52332e-07
-5.34508e-06
4.99275e-06
-8.64198e-08
-7.69309e-06
6.94614e-06
-6.94614e-06
-3.1604e-06
5.9592e-06
-2.7988e-06
-5.73648e-06
5.73648e-06
5.86534e-06
-5.18542e-06
-6.7993e-07
5.45608e-06
1.29609e-06
6.11262e-06
-5.01452e-06
6.0442e-06
-6.7811e-08
-4.73202e-06
-7.58148e-07
5.49017e-06
-7.68465e-06
7.71066e-06
-2.60101e-08
7.08708e-06
-4.26608e-06
-2.821e-06
1.03611e-06
5.07651e-06
-7.7651e-06
7.72624e-06
3.88575e-08
-1.27861e-09
-5.65043e-08
7.66275e-06
-7.60625e-06
-7.73545e-06
7.73545e-06
-9.21382e-08
5.81418e-06
8.30065e-06
-7.73815e-06
-5.62502e-07
-7.7699e-06
7.7134e-06
7.76326e-06
-7.72365e-06
-3.9618e-08
-5.65656e-06
-1.27424e-07
6.61621e-06
-8.82224e-08
7.71159e-06
-7.62336e-06
7.71401e-06
-7.72851e-06
1.45037e-08
-5.83029e-06
7.67395e-06
-1.11936e-08
-5.93324e-06
5.88018e-06
5.30605e-08
-7.67246e-06
7.70006e-06
-2.75943e-08
5.87676e-06
-5.72453e-06
-7.74937e-06
7.66115e-06
5.94303e-06
-1.8887e-06
2.83038e-06
3.70243e-06
-4.29708e-06
-3.27131e-06
-7.72244e-06
7.72244e-06
-7.75784e-06
-1.20611e-08
7.18177e-06
-1.31646e-06
-5.86531e-06
-5.06344e-06
3.43918e-06
1.93593e-07
7.68627e-06
-7.71003e-06
2.37657e-08
5.65762e-06
-5.65188e-06
-5.74185e-09
7.92574e-06
-7.71995e-06
-2.05787e-07
7.64639e-06
3.9881e-08
7.63231e-06
7.92719e-08
-1.56699e-08
-5.72081e-06
-7.07914e-06
3.89597e-06
3.18317e-06
-5.71275e-06
5.74923e-06
7.67057e-06
-2.41801e-08
8.05645e-07
5.20799e-06
4.12491e-06
-1.57816e-06
-7.73816e-06
-1.1208e-08
6.31117e-06
3.74535e-06
-6.38204e-06
-9.71784e-07
-7.88133e-06
5.75702e-06
-5.79017e-06
3.31427e-08
-2.66806e-07
-7.80849e-06
5.99479e-06
-6.70004e-08
6.66586e-06
-4.561e-06
-2.10487e-06
-5.76957e-06
7.68222e-06
-7.68222e-06
5.49564e-06
7.01619e-08
-5.5658e-06
5.91617e-06
-7.69837e-06
7.68829e-06
1.00796e-08
7.64402e-06
-7.7176e-06
7.35808e-08
4.86676e-06
-6.44058e-06
-2.05031e-08
-7.64418e-06
7.66468e-06
7.62656e-06
-7.64707e-06
-2.55417e-07
8.12847e-06
-6.10809e-06
6.61546e-06
-6.90942e-06
4.79241e-06
-1.21493e-07
7.87275e-06
6.6218e-07
3.41113e-06
6.34133e-08
7.11836e-06
-2.06206e-08
6.16132e-06
-6.1407e-06
-5.23359e-08
-7.71686e-06
-4.82388e-08
6.33354e-06
-6.33441e-07
-5.7001e-06
-7.66549e-06
7.66549e-06
4.50236e-06
-3.87652e-06
-7.72903e-06
7.7088e-06
2.02248e-08
5.90254e-06
-5.90254e-06
5.74721e-06
-8.9592e-08
7.67598e-06
-7.6883e-06
1.23263e-08
-7.40902e-06
2.0258e-06
7.74818e-09
-5.70175e-06
5.694e-06
6.1838e-06
-5.1708e-08
7.69219e-06
7.10784e-08
4.66609e-06
7.96608e-07
-5.46269e-06
7.71563e-06
-4.16839e-08
5.99329e-06
-5.99329e-06
7.66656e-06
-7.63993e-06
-2.66296e-08
-5.862e-06
5.81899e-06
4.30131e-08
7.72521e-06
-7.70177e-06
-2.34454e-08
-7.67816e-06
7.67816e-06
1.14199e-06
5.3755e-06
1.81234e-07
-5.55673e-06
-7.72965e-06
7.70956e-06
2.00936e-08
-2.8443e-08
-5.78778e-06
5.75472e-06
2.30069e-09
7.18455e-06
-1.35889e-06
-5.82566e-06
4.96342e-06
7.64711e-06
-7.66819e-06
2.10829e-08
5.90972e-06
6.31359e-06
8.90016e-08
5.40664e-06
7.84137e-06
-1.49187e-07
7.62204e-06
2.50644e-08
5.60846e-06
-5.60846e-06
-2.9529e-06
7.75495e-06
-7.69406e-06
-2.35367e-08
7.69005e-06
-7.66108e-06
-2.89712e-08
1.50281e-07
-7.836e-06
7.68572e-06
8.05415e-07
-7.75156e-06
-7.71567e-06
7.70239e-06
1.32801e-08
5.57023e-06
-5.56743e-06
-2.7985e-09
5.86534e-06
-5.17658e-06
5.17658e-06
7.63748e-06
-1.54417e-08
-5.72675e-06
-5.34508e-06
5.396e-06
5.94126e-06
-6.17835e-08
-1.73511e-08
6.08507e-07
-7.58517e-06
7.6888e-06
-7.69122e-06
2.41764e-09
1.84201e-07
5.38603e-06
1.77373e-07
6.15616e-06
5.79261e-06
-4.54054e-08
-7.69842e-06
7.68953e-06
8.89328e-09
7.63058e-06
-7.65182e-06
2.12387e-08
-7.69157e-06
-3.74566e-08
7.67065e-06
-7.65052e-06
-2.01367e-08
5.79171e-06
1.10832e-07
7.67548e-06
3.33273e-08
-9.61928e-09
7.65822e-06
3.13028e-08
-1.16967e-09
-5.6725e-06
-7.77495e-06
8.18615e-08
-5.75418e-06
5.75418e-06
7.06123e-08
7.11394e-06
-5.84707e-06
1.11505e-06
4.01932e-08
7.67382e-06
3.19121e-07
-5.52806e-06
5.20894e-06
5.32072e-08
7.68225e-06
7.32887e-06
-7.99357e-06
5.78605e-06
2.07238e-07
7.62656e-06
-5.92857e-08
5.43478e-06
-5.59575e-06
2.83199e-08
5.51286e-06
-8.46776e-07
-7.64561e-06
7.64561e-06
-7.6866e-06
-4.30531e-08
5.18542e-06
-5.37501e-06
1.8959e-07
-7.68225e-06
5.66239e-06
-5.65464e-06
7.6717e-06
3.78588e-08
-7.67531e-06
-6.82582e-06
4.74976e-06
-7.70801e-06
7.69521e-06
1.28045e-08
5.24155e-06
4.92166e-07
5.70175e-06
3.47382e-08
-7.62094e-06
7.67313e-06
-5.21856e-08
-5.78831e-06
5.73679e-06
5.15222e-08
-7.64534e-06
2.43973e-08
5.76683e-06
-1.21048e-08
3.20261e-07
-5.96178e-06
5.64152e-06
7.64352e-06
-7.67733e-06
3.38064e-08
6.21776e-06
-6.50867e-06
7.64268e-06
-7.64185e-06
-8.32452e-10
-4.88522e-06
4.88522e-06
-6.01426e-06
6.01426e-06
-7.63392e-06
-1.14201e-08
-3.56723e-06
4.22941e-06
-7.65571e-06
7.64446e-06
1.12567e-08
5.9624e-08
7.66282e-06
4.77468e-06
-4.22941e-06
-4.77468e-06
5.04371e-06
5.06906e-06
-5.82721e-06
6.98623e-06
-4.14044e-06
-2.8458e-06
-7.68313e-06
-3.25368e-08
-1.10866e-06
-5.04371e-06
6.15237e-06
7.67352e-06
2.8868e-08
-5.81354e-06
5.38818e-06
7.69553e-06
-7.67999e-06
-1.55376e-08
-7.65041e-06
-5.76146e-06
5.78696e-06
-1.78508e-07
-2.04733e-08
7.69104e-06
7.65893e-06
-5.694e-06
-7.84144e-06
-4.60014e-06
5.87972e-06
-1.27957e-06
-7.61667e-06
-2.75112e-08
7.64892e-06
9.30648e-09
4.46106e-06
-4.55669e-06
9.56346e-08
8.76094e-09
5.37501e-06
-5.59062e-06
2.15614e-07
3.52135e-06
3.58599e-06
-7.67968e-06
-2.8335e-08
-5.81592e-06
7.61529e-06
-7.60894e-06
-6.34578e-09
7.67052e-06
2.4689e-08
-7.6927e-06
7.68442e-06
8.27068e-09
5.88e-06
5.79171e-06
-7.63481e-06
7.61814e-06
1.66682e-08
7.68869e-06
-7.68533e-06
-3.36167e-09
-5.7177e-06
5.78605e-06
7.63119e-06
-7.63119e-06
3.03426e-08
7.69589e-06
-4.81849e-06
-1.02858e-06
7.64724e-06
-3.72015e-09
-9.83824e-07
5.22429e-06
-4.24047e-06
7.62762e-06
-7.62101e-06
-6.60436e-09
2.3325e-08
7.6589e-06
7.61377e-06
-7.62052e-06
6.74888e-09
-7.7027e-06
-7.67505e-06
-4.62151e-06
6.58718e-09
7.6817e-06
-8.03404e-09
-7.65417e-06
7.6622e-06
-7.63171e-06
7.61508e-06
1.66324e-08
-7.67937e-06
-1.33288e-08
-5.81347e-06
-5.61418e-06
1.84293e-08
7.67156e-06
1.2866e-08
-7.62481e-06
7.62159e-06
3.21934e-09
-7.63005e-06
2.8649e-08
7.6014e-06
7.67706e-06
1.84618e-08
-7.65332e-06
-2.6671e-08
-5.58231e-06
-2.6143e-08
7.67329e-06
-7.67803e-06
4.73782e-09
7.62766e-06
-7.63569e-06
-7.64347e-06
7.63293e-06
1.0539e-08
7.62444e-06
-7.61826e-06
-6.17867e-09
5.74908e-06
5.09814e-09
7.67584e-06
1.28474e-08
-7.66516e-06
-2.01711e-08
-7.6933e-06
5.78696e-06
-7.62852e-06
7.61333e-06
1.51884e-08
5.06323e-06
-5.39369e-06
-7.607e-06
7.63551e-06
-2.85058e-08
7.63056e-06
-7.64193e-06
1.13758e-08
-1.85881e-08
-7.67197e-06
-7.40081e-09
-1.98703e-08
-6.77214e-06
4.80498e-06
-1.30779e-08
7.62766e-06
-1.26168e-08
-8.11721e-09
-7.67844e-06
6.47473e-09
2.93555e-06
6.45193e-06
-9.38748e-06
-1.59005e-06
7.67336e-06
-6.86512e-11
-7.6589e-06
1.41077e-08
7.65138e-06
-7.66359e-06
-1.44432e-08
-5.76819e-06
-7.68608e-06
7.64181e-09
2.67822e-08
7.64919e-06
-1.22431e-09
3.62752e-08
-7.556e-06
7.51972e-06
7.68393e-06
-7.68e-06
-3.92897e-09
-5.87113e-06
1.05264e-06
7.66913e-06
-7.65569e-06
-1.34402e-08
-7.6742e-06
-5.69004e-06
-3.00052e-07
7.62282e-06
-7.6168e-06
-6.01729e-09
3.99994e-08
-7.56319e-06
7.52319e-06
-7.68202e-06
7.6677e-06
1.43209e-08
-5.80841e-06
5.76057e-06
4.78427e-08
6.769e-09
-7.68196e-06
-4.12276e-09
-5.84024e-06
1.21135e-06
4.62889e-06
-7.67191e-06
-1.01055e-08
7.68142e-06
2.51701e-09
-7.66883e-06
-1.11768e-08
-3.04957e-08
-7.68244e-06
4.79563e-10
-5.52414e-06
-6.4583e-07
6.16997e-06
4.41305e-06
3.22503e-08
-7.65138e-06
5.76171e-06
-2.49152e-08
-7.6224e-06
7.6224e-06
-1.47409e-08
7.67772e-06
3.69175e-09
-6.0776e-09
1.19052e-08
1.2256e-08
7.68063e-06
-2.90814e-09
4.536e-09
7.67864e-06
-7.6787e-06
5.93764e-11
5.54262e-06
-5.54262e-06
-7.66279e-06
7.64633e-06
1.64646e-08
7.63514e-06
-7.6273e-06
-7.84211e-09
-1.07676e-08
7.67582e-06
4.80826e-09
7.6762e-06
2.44104e-09
-2.87758e-09
7.67698e-06
7.66946e-06
-7.67371e-06
4.25023e-09
-7.74345e-06
-7.64494e-06
-1.78475e-08
5.91036e-06
-7.24575e-08
7.66257e-06
6.88328e-09
6.42573e-08
7.66841e-06
-7.66e-06
-8.41391e-09
-5.47781e-06
5.47781e-06
4.28587e-08
7.6353e-06
-7.62119e-06
7.63342e-06
-1.22252e-08
7.66678e-06
1.63096e-09
6.11713e-08
5.73144e-06
7.6577e-06
-7.65483e-06
-2.87208e-09
-7.59735e-06
-2.38439e-08
7.63601e-06
-7.64226e-06
6.24776e-09
7.65276e-06
4.94549e-09
7.66691e-06
9.28597e-09
-7.59862e-08
-7.57818e-06
-1.2932e-08
-6.75178e-07
-5.14975e-06
7.62407e-06
-7.63146e-06
7.391e-09
2.29487e-07
5.31313e-06
7.65673e-06
-7.64955e-06
-7.17451e-09
-6.79269e-09
-1.30516e-07
-6.37197e-06
6.50249e-06
-5.54615e-06
5.60912e-06
-6.29744e-08
-7.58834e-06
7.59077e-06
-2.42779e-09
7.64793e-06
8.7992e-09
-7.62533e-06
-4.76771e-06
7.70326e-06
7.6509e-06
-7.64003e-06
-1.08755e-08
-7.65832e-06
7.65852e-06
-2.01784e-10
7.63627e-06
-7.62934e-06
-6.92788e-09
-7.42011e-07
-6.54973e-06
7.29174e-06
7.64306e-06
7.83861e-09
-7.59413e-06
5.78821e-09
7.652e-06
-7.64219e-06
-9.80999e-09
5.74908e-06
-5.88763e-06
5.88763e-06
7.64917e-06
-7.63476e-06
-1.44039e-08
-1.47513e-08
7.65223e-06
-1.19948e-08
-5.75731e-06
7.63839e-06
1.07706e-08
-7.65763e-06
-1.42857e-08
-7.5825e-06
7.58652e-06
-4.0144e-09
7.65839e-06
4.1805e-09
1.2918e-07
7.58148e-06
-1.60688e-09
7.65125e-06
1.94009e-08
5.73094e-06
3.07702e-08
8.94337e-10
-7.58997e-06
7.46497e-09
5.84663e-07
2.12009e-08
2.47134e-07
7.62911e-06
-7.63626e-06
7.1565e-09
-7.57446e-06
7.58326e-06
-8.79723e-09
1.35263e-07
-5.73894e-06
5.60368e-06
1.0258e-06
-5.97795e-06
4.95215e-06
2.19208e-06
5.41861e-06
-5.41861e-06
7.62385e-06
-7.62385e-06
-6.27976e-06
3.51294e-09
-7.63832e-06
5.85091e-06
7.64959e-06
1.71947e-08
-1.44364e-06
-2.68271e-06
4.12636e-06
-7.58549e-06
1.10265e-08
-7.58987e-06
-2.46132e-07
3.24355e-06
-5.35253e-06
2.10899e-06
-5.24459e-09
5.17551e-08
7.58375e-06
2.16202e-08
5.74521e-06
-7.66037e-06
1.61035e-08
7.62951e-06
4.86688e-06
-5.93835e-06
1.07147e-06
4.95337e-06
-1.70982e-06
-9.52163e-09
-7.62219e-06
7.66148e-06
-7.60973e-06
-7.63961e-06
-7.56446e-06
7.55728e-06
7.18166e-09
1.67447e-09
7.64278e-06
7.61595e-06
7.90422e-09
6.9591e-06
-4.61789e-06
-2.34121e-06
-2.74806e-08
5.81354e-06
7.64073e-06
1.20309e-08
6.95648e-06
-7.69849e-06
5.15725e-08
7.58357e-06
-9.00108e-09
-7.61952e-06
-7.57327e-06
8.81348e-09
-5.56392e-06
1.7771e-08
5.84524e-06
-4.68636e-06
-1.15888e-06
7.6024e-06
-7.60307e-06
6.65941e-10
-8.82196e-09
2.19336e-06
-3.08332e-06
-2.88933e-06
5.97265e-06
7.61652e-06
-7.62825e-06
1.17313e-08
6.07121e-06
-6.00105e-06
-2.17634e-08
5.81347e-06
-4.99253e-06
3.54889e-06
7.60886e-06
-7.61651e-06
7.65566e-09
7.65256e-06
-7.60099e-06
-5.73246e-06
1.89849e-07
-5.75437e-06
5.74752e-06
6.85372e-09
5.59062e-06
-5.72113e-06
1.21068e-07
7.57899e-06
-5.80414e-06
5.63163e-06
-2.04927e-07
7.64078e-06
-7.63152e-06
-9.26474e-09
5.94977e-06
-5.68439e-06
-2.65378e-07
7.61595e-06
-4.59342e-09
-7.62021e-06
-5.63301e-06
1.8833e-08
7.05969e-07
4.32697e-06
-5.03294e-06
-7.5548e-06
7.54661e-06
8.19391e-09
7.604e-06
2.65572e-08
-4.81626e-06
-1.01094e-06
5.52421e-08
7.58103e-06
7.62822e-06
-7.64599e-06
1.77654e-08
7.6188e-06
-1.40848e-08
-7.59486e-06
-5.95977e-06
-1.00425e-06
7.63208e-06
1.5845e-08
8.11314e-06
-1.66121e-06
-4.60801e-08
7.62442e-06
-7.57834e-06
7.62116e-06
7.06793e-09
-7.56552e-06
1.07212e-08
-7.58764e-06
-5.42085e-08
-1.4581e-08
7.52262e-06
-7.50804e-06
9.88531e-09
7.6213e-06
7.65356e-06
-7.59832e-06
-7.62951e-06
-2.89555e-08
5.81592e-06
-7.94456e-09
5.76915e-06
-2.98878e-07
-5.47027e-06
7.74024e-08
5.69175e-06
-7.53335e-06
7.51876e-06
-7.62844e-06
-1.65047e-08
4.84259e-06
1.00266e-06
-2.89759e-08
5.90085e-06
-5.87188e-06
-4.88706e-06
-4.08937e-06
4.79534e-06
-6.37657e-06
7.87612e-07
5.58895e-06
7.61809e-06
5.80126e-09
-7.62681e-06
7.55752e-08
7.58591e-06
7.60663e-06
-7.60775e-06
1.11797e-09
7.62327e-06
-7.60059e-06
-2.26779e-08
-7.63358e-06
4.9807e-09
-1.10487e-08
-5.7598e-06
5.77084e-06
1.09987e-09
7.63183e-06
-5.29535e-06
1.54966e-06
-7.62354e-06
7.6193e-06
4.23885e-09
-7.54419e-06
7.5352e-06
8.98367e-09
7.35322e-08
6.23822e-06
-6.05699e-06
4.5702e-06
-1.09146e-07
-3.94696e-08
7.62869e-06
-7.58922e-06
-6.80326e-06
3.71995e-06
7.61544e-06
6.74425e-09
-7.625e-06
7.62338e-06
1.96866e-08
-7.12598e-06
7.18304e-08
7.05415e-06
1.18958e-08
-7.55608e-06
7.60829e-06
-7.60029e-06
-8.00159e-09
-2.40351e-07
7.65347e-06
-7.41312e-06
-1.13856e-08
-1.56341e-06
7.1618e-06
-5.59839e-06
-5.73246e-06
-6.36351e-06
7.61308e-06
-4.22e-09
6.67071e-08
7.58586e-06
7.42163e-06
7.68479e-06
-7.67888e-06
-5.91365e-09
-7.09601e-10
-5.76828e-06
5.76899e-06
-7.61744e-06
7.61227e-06
5.16325e-09
1.53886e-07
-5.7362e-06
5.58231e-06
7.62752e-06
-7.62432e-06
-3.19753e-09
-5.90618e-06
5.87721e-06
7.60507e-06
-7.59922e-06
-5.84892e-09
2.13206e-08
7.60195e-06
-8.18084e-08
7.6456e-06
-7.62237e-06
8.11153e-08
-5.62335e-06
7.62191e-06
-7.62062e-06
-1.2888e-09
7.61823e-06
4.45201e-09
-7.62125e-06
7.57924e-06
1.61189e-08
-7.59536e-06
1.81445e-09
7.62291e-06
-7.60158e-06
-1.80586e-08
-5.77249e-06
5.79055e-06
4.09235e-06
-6.02261e-06
1.93026e-06
-1.28536e-06
-5.84062e-06
-5.59328e-06
-1.26018e-06
-4.91255e-06
-7.61354e-06
4.37987e-08
7.56974e-06
-5.80777e-06
5.77249e-06
3.52845e-08
-1.76703e-06
-4.67355e-06
-7.60967e-06
6.79384e-06
-7.59392e-06
7.60726e-06
-1.33422e-08
-6.34707e-06
6.31357e-07
5.71571e-06
6.05634e-06
-4.65423e-06
-1.40212e-06
-7.62045e-06
1.52375e-08
7.60521e-06
5.78116e-06
-5.7093e-06
1.59046e-08
7.59238e-06
-7.6213e-06
7.72467e-09
7.61468e-06
7.61365e-06
2.47409e-08
-1.25667e-09
-7.61926e-06
-2.45424e-08
-7.599e-06
-7.60153e-06
5.77434e-06
-5.70251e-06
-3.23361e-08
1.6271e-06
5.03876e-06
-5.21911e-06
5.21911e-06
6.60017e-08
7.58756e-06
-8.63717e-06
-7.02776e-06
7.02705e-06
7.62394e-06
5.77011e-06
-5.72905e-06
-7.61215e-06
7.5876e-06
-6.43355e-06
6.58743e-06
7.60689e-06
-7.60025e-06
-6.64245e-09
9.17654e-09
7.61489e-06
-7.70387e-06
5.79746e-06
-5.81552e-06
-7.61006e-06
1.27081e-08
2.86509e-06
7.6287e-06
-7.61942e-06
-9.27268e-09
-7.62373e-06
7.60725e-06
-7.6009e-06
-6.34439e-09
-7.60595e-06
-7.59577e-09
7.58993e-06
-7.56668e-06
-5.81891e-06
6.99505e-06
7.6007e-06
-7.59818e-06
-2.51468e-09
-1.33975e-08
7.59264e-06
-5.80777e-06
5.03293e-06
-5.45505e-06
4.22128e-07
-9.35969e-06
9.35969e-06
7.62033e-06
7.62183e-06
-1.92926e-08
1.27181e-08
-7.61981e-06
7.6461e-06
-2.62923e-08
7.60495e-06
-7.5986e-06
-6.35289e-09
-6.31117e-06
6.01111e-06
2.33837e-08
7.60104e-06
-7.62038e-06
2.0536e-08
7.59985e-06
-7.59813e-06
7.61454e-06
-7.60433e-06
-5.83541e-06
-7.61406e-06
2.53714e-08
7.58869e-06
-5.84413e-06
-1.63828e-08
5.70434e-06
-5.74806e-06
4.37238e-08
7.59499e-06
-7.60139e-06
6.40113e-09
1.4042e-07
-7.61393e-06
7.60133e-06
1.25988e-08
7.6088e-06
-5.57849e-06
-5.53886e-06
-9.4155e-08
7.61882e-06
-7.61882e-06
-3.92148e-08
5.7883e-06
-7.61468e-06
7.60354e-06
-7.5972e-06
-6.33927e-09
7.61778e-06
-4.23716e-08
-7.60814e-06
-5.66291e-06
-7.09067e-07
-5.80404e-06
4.55178e-06
-5.08409e-06
5.32313e-07
-1.14045e-06
-4.91516e-06
6.05562e-06
7.58964e-06
-7.56956e-06
4.91589e-06
-5.73894e-06
-1.6347e-08
-7.6041e-06
7.60762e-06
-7.60131e-06
-6.30876e-09
5.84459e-06
-5.87316e-06
-1.60923e-06
-1.0602e-06
2.66943e-06
-6.06313e-06
6.11365e-06
5.8657e-06
-5.7883e-06
-2.30987e-08
-5.68804e-06
5.71114e-06
-2.63326e-08
-5.64513e-06
5.67147e-06
1.91028e-08
-5.9135e-06
5.8944e-06
5.40693e-08
-5.9373e-06
5.88324e-06
2.73427e-08
-5.81901e-06
5.79167e-06
-1.15609e-08
-5.69468e-06
5.70625e-06
-1.36749e-08
-5.68995e-06
5.70362e-06
3.42697e-06
-2.30869e-06
-1.11828e-06
5.05303e-06
3.69421e-08
7.59175e-06
5.57112e-06
-5.60108e-06
2.99585e-08
1.78931e-08
-7.60464e-06
7.58674e-06
7.62426e-06
-7.62426e-06
7.52331e-06
-1.95593e-09
-7.52135e-06
-2.52253e-08
-7.58692e-06
7.60298e-06
-7.59637e-06
-6.61559e-09
-4.72519e-06
-6.20499e-06
-1.42077e-07
4.98239e-06
9.67375e-07
7.61814e-06
-7.60798e-06
-1.01585e-08
-5.79914e-06
6.0249e-06
2.51769e-08
7.59773e-06
-4.17886e-06
-2.62441e-06
5.54448e-08
5.45938e-06
-5.51483e-06
-3.89811e-06
-6.58583e-07
-1.3078e-06
-8.10695e-07
2.11849e-06
5.71888e-06
5.71985e-06
5.97037e-06
5.97024e-06
5.92882e-06
5.85367e-06
-2.65983e-08
-5.73534e-06
5.76194e-06
5.73771e-06
-6.77485e-09
-2.26071e-06
7.60542e-06
-7.58753e-06
-1.87605e-07
6.11726e-06
-7.62866e-06
-5.20873e-06
6.43771e-06
7.51306e-06
6.78038e-09
-7.51984e-06
7.63422e-06
-1.5395e-08
-7.61787e-06
2.72578e-08
7.59061e-06
-5.74521e-06
-5.7598e-06
5.75959e-06
-5.78619e-06
-5.24214e-06
6.33516e-06
-1.09302e-06
-1.35808e-08
-7.60048e-06
3.96876e-06
-4.95259e-06
1.25614e-08
-7.61285e-06
-7.60392e-06
-2.02317e-06
-2.96936e-06
-7.59027e-06
-1.43631e-08
5.82782e-06
1.81774e-06
4.42981e-06
7.59563e-06
-7.58979e-06
-5.84495e-09
5.79155e-06
-3.83682e-06
-1.95473e-06
-2.75665e-06
1.44885e-06
-3.19464e-06
6.91458e-06
-2.77098e-06
5.76083e-06
-2.98985e-06
2.26646e-09
7.61425e-06
-7.56225e-06
7.60091e-06
-7.60535e-06
4.44104e-09
-4.30566e-06
1.83726e-06
2.4684e-06
-2.54236e-08
-5.73363e-06
5.75906e-06
7.96234e-06
-3.52674e-06
-4.4356e-06
5.72023e-09
7.51759e-06
-1.65465e-06
-2.65101e-06
-5.5555e-06
5.61094e-06
4.73848e-06
3.1455e-07
-5.52694e-06
-1.16464e-08
-5.7419e-06
5.75355e-06
5.93221e-06
-5.74801e-06
-3.53254e-06
-1.33841e-06
4.87095e-06
-7.58927e-06
7.59149e-06
-2.2187e-09
-5.61168e-06
5.6928e-06
7.59773e-06
-7.60265e-06
-5.07879e-06
-1.40316e-07
-7.6541e-06
7.62513e-06
-3.96335e-06
5.74496e-09
7.60151e-06
6.63159e-06
-3.66511e-06
-2.96648e-06
5.61499e-06
-1.06321e-06
6.27026e-06
-8.10872e-07
5.75024e-06
-5.77567e-06
7.58732e-06
-7.58774e-06
4.17968e-10
5.75735e-06
-5.76899e-06
6.98086e-09
-7.5835e-06
7.57652e-06
-3.19952e-06
-7.63829e-07
1.25618e-08
-5.83147e-06
-7.60486e-06