/*--------------------------------*- C++ -*----------------------------------*\
  =========                 |
  \\      /  F ield         | OpenFOAM: The Open Source CFD Toolbox
   \\    /   O peration     | Website:  https://openfoam.org
    \\  /    A nd           | Version:  12
     \\/     M anipulation  |
\*---------------------------------------------------------------------------*/
FoamFile
{
    format      ascii;
    class       surfaceScalarField;
    location    "0.19";
    object      phi;
}
// * * * * * * * * * * * * * * * * * * * * * * * * * * * * * * * * * * * * * //

dimensions      [0 3 -1 0 0 0 0];

internalField   nonuniform List<scalar> 
6438
(
-3.09407e-08
3.85504e-06
-3.82409e-06
-3.36162e-08
4.47843e-06
-4.44481e-06
-4.20104e-06
-7.13266e-07
4.91431e-06
3.98575e-06
-4.37479e-06
3.8904e-07
6.12376e-06
-4.78414e-06
-1.33962e-06
1.38753e-06
4.73623e-06
-4.7755e-06
5.74465e-07
-4.13899e-06
4.10537e-06
4.47272e-06
-5.33905e-06
8.66332e-07
4.15664e-06
-4.87487e-06
7.18228e-07
-4.01936e-06
4.88991e-06
-8.7055e-07
9.64493e-07
-4.4049e-06
3.44041e-06
-4.97897e-06
9.59607e-07
3.81983e-06
1.75413e-06
-5.57397e-06
3.58907e-06
-3.62001e-06
-2.0297e-07
4.20659e-06
-4.00362e-06
-5.29968e-06
5.13981e-06
1.5987e-07
-4.01252e-06
4.8736e-06
-8.61082e-07
-4.9767e-06
9.64183e-07
1.5797e-06
3.33813e-06
-4.91783e-06
-1.15055e-06
-7.52027e-07
1.90258e-06
-2.4486e-07
4.40544e-06
-4.16058e-06
-4.08661e-06
-6.618e-07
4.74841e-06
-5.00377e-06
2.1944e-06
2.80936e-06
-4.34014e-06
4.09528e-06
-3.85439e-06
4.68519e-06
-8.30808e-07
-4.71503e-06
6.28418e-07
4.46652e-06
-3.50202e-06
-4.05728e-06
-7.60797e-07
4.81808e-06
-4.90911e-06
1.05473e-06
3.75782e-06
-4.72488e-06
9.6706e-07
2.09345e-08
-4.60005e-06
4.57912e-06
4.502e-06
-4.52885e-06
2.68516e-08
-4.46041e-06
7.49534e-07
3.71088e-06
-6.02284e-06
9.74806e-07
5.04804e-06
4.2355e-06
-4.21456e-06
4.27394e-06
-2.88186e-07
2.77275e-06
3.88383e-06
-6.65658e-06
-1.37383e-06
5.19366e-06
-3.97793e-06
4.37052e-06
-3.92589e-07
-4.60902e-06
4.56701e-06
4.20134e-08
-1.91404e-06
3.49374e-06
4.12077e-06
3.58711e-08
-4.9538e-06
4.85286e-06
1.00938e-07
4.43651e-06
-6.78695e-07
-3.33659e-06
3.13362e-06
-5.7586e-06
9.74462e-07
4.37868e-06
4.2121e-07
-4.79989e-06
-3.39969e-06
-1.06072e-06
-6.25091e-07
-4.09552e-06
4.64685e-06
-5.51336e-07
-3.04775e-06
4.4003e-06
-1.35255e-06
4.41874e-06
-4.41874e-06
1.38876e-06
3.35099e-06
4.40715e-07
-3.79171e-06
1.96692e-06
9.56438e-07
-2.92336e-06
3.7418e-06
7.87829e-07
-4.52963e-06
3.61327e-06
-1.41887e-06
-2.09507e-06
-3.66353e-06
-4.36732e-08
3.89574e-06
-3.85207e-06
-4.80466e-06
4.80466e-06
-4.97748e-06
5.02875e-06
-5.12675e-08
2.00958e-07
3.70026e-06
-3.90122e-06
1.3746e-08
-4.53372e-06
4.51997e-06
4.20736e-06
-4.19361e-06
-4.58773e-06
5.30447e-07
-4.5996e-06
-3.54205e-07
-3.95658e-06
4.34872e-06
-3.92141e-07
4.37443e-07
3.78779e-06
-4.22523e-06
-4.65199e-06
4.47389e-06
1.78105e-07
4.53473e-06
-4.53473e-06
4.21412e-06
2.58597e-07
-2.76889e-06
-2.10598e-06
3.94958e-06
8.32465e-07
-4.78204e-06
-3.87433e-06
-7.34693e-07
3.44168e-06
2.65928e-06
-6.10097e-06
-5.33008e-06
3.41604e-06
-3.40172e-06
-1.92835e-06
4.69615e-06
-7.46571e-07
2.79804e-06
-8.31113e-07
3.80208e-06
4.34741e-07
-4.23682e-06
-4.6882e-06
-2.89285e-07
-6.63101e-07
-1.14146e-06
-3.6632e-06
5.08227e-06
-5.08227e-06
-3.35973e-06
-1.29227e-06
-3.04468e-07
-5.71838e-06
-4.38514e-06
4.36745e-06
1.76865e-08
1.5784e-07
-4.4414e-06
4.28356e-06
-4.88296e-07
4.29038e-06
4.38977e-06
1.12226e-07
-4.58543e-06
-7.14254e-07
-4.63023e-06
4.74836e-06
-1.18131e-07
4.83283e-06
-2.70481e-06
-2.12802e-06
4.33592e-06
-4.17808e-06
8.8747e-08
4.86281e-06
-2.47479e-06
-2.38802e-06
2.76649e-06
2.06635e-06
4.46289e-06
-4.46289e-06
-3.42304e-06
4.91074e-06
-1.4877e-06
-4.30191e-06
2.06393e-07
-5.884e-07
-3.48426e-06
4.07266e-06
-4.03197e-06
1.57644e-07
-4.32056e-06
8.97524e-07
3.72783e-06
8.21932e-07
-4.54976e-06
-2.6034e-07
3.98817e-06
-3.89338e-06
4.49833e-06
-6.0495e-07
-4.13687e-06
1.58937e-07
2.85311e-06
2.00971e-06
4.30885e-06
-8.68441e-07
1.8519e-07
4.23355e-06
-3.71896e-06
-3.13019e-07
3.88825e-06
8.27289e-07
-4.71553e-06
-2.14963e-06
-1.85457e-06
4.0042e-06
2.83047e-06
-3.57111e-07
-2.47336e-06
-4.60005e-06
9.33397e-07
4.61163e-06
-5.54502e-06
-2.13779e-06
9.87243e-07
4.6007e-06
8.44907e-08
4.98788e-06
-2.58087e-06
-2.40701e-06
1.66968e-06
3.3182e-06
4.65654e-06
-7.68291e-07
5.6806e-06
-2.90786e-06
-4.2093e-06
1.19656e-08
4.19734e-06
-6.01981e-06
6.14582e-07
5.40522e-06
-6.89421e-08
-4.17904e-06
4.24798e-06
4.59674e-06
2.56124e-07
-3.54555e-06
3.50188e-06
-4.23026e-06
4.31529e-06
-8.50302e-08
4.28346e-06
-4.3524e-06
4.42015e-06
-4.42015e-06
4.353e-06
1.25431e-07
4.36129e-06
-1.01029e-06
4.3022e-06
-4.10124e-06
-3.78996e-06
3.20156e-06
3.89677e-08
4.17659e-06
-4.21556e-06
4.91261e-06
-3.44268e-06
-1.46993e-06
-4.53372e-06
-6.53252e-08
5.09301e-08
-4.18992e-06
-4.19918e-06
2.42603e-07
4.82836e-08
4.18721e-06
4.05219e-06
-3.61475e-06
-4.179e-06
2.85616e-07
4.23979e-06
-1.19024e-07
-1.51278e-07
3.68962e-06
-3.53835e-06
2.90326e-06
2.00935e-06
-4.34539e-06
9.33069e-07
3.41232e-06
4.42969e-06
-2.93873e-08
-5.85804e-06
5.3279e-07
5.32525e-06
-5.91823e-08
-4.15702e-06
4.2162e-06
2.76319e-06
6.72805e-08
2.64296e-07
4.16539e-06
4.12234e-06
3.44175e-07
4.25848e-06
-4.31766e-06
-4.4378e-06
-1.47632e-07
4.52664e-06
-4.86368e-06
3.37041e-07
-4.04724e-06
-1.62061e-07
-4.92564e-06
2.13538e-06
2.79026e-06
1.10626e-09
4.25832e-06
1.47117e-07
-4.00793e-06
4.66087e-06
-6.52943e-07
-4.41773e-06
3.80534e-06
6.12396e-07
-5.97356e-07
1.54395e-06
-9.46594e-07
-1.38503e-06
-3.52409e-06
-4.4414e-06
-3.50193e-08
4.24238e-06
1.30067e-06
3.61006e-06
-7.08308e-08
-4.31961e-06
-2.05303e-08
-9.1458e-08
-4.72222e-06
3.99032e-06
7.31893e-07
-2.77231e-07
3.51991e-06
6.94214e-07
6.90369e-06
-3.01986e-06
-1.46086e-06
-3.51584e-06
4.33018e-06
5.95866e-08
-3.71768e-06
1.56806e-06
-1.66892e-06
-2.63503e-06
4.30396e-06
-1.49037e-06
-3.4886e-06
-2.42421e-06
5.8659e-06
-4.46592e-06
1.46311e-07
-4.21607e-06
4.23218e-06
-1.61093e-08
-3.48309e-06
3.33182e-06
-5.06666e-08
-4.13213e-06
4.1828e-06
-4.54336e-06
7.74427e-08
3.78888e-06
-4.50838e-06
7.19499e-07
4.22139e-06
-4.27205e-06
3.77247e-06
-1.4282e-06
-2.34427e-06
-5.70603e-06
2.0205e-06
3.68553e-06
3.86811e-06
3.7168e-07
3.19488e-06
1.94493e-06
9.3337e-07
4.1489e-06
-1.10803e-06
-3.97424e-06
-4.59842e-06
4.55735e-06
4.1074e-08
-4.58583e-06
-1.25902e-08
-4.5626e-06
-2.3234e-08
1.39838e-08
1.18729e-06
-6.64266e-06
5.45538e-06
-4.93265e-06
5.86604e-06
3.89502e-06
-3.85605e-06
4.1622e-06
1.73726e-07
3.39351e-07
3.43312e-06
-4.17904e-06
-3.78885e-06
3.7712e-06
4.69802e-07
-4.241e-06
-2.12472e-08
-8.99744e-07
6.63116e-06
-5.73142e-06
6.29018e-06
-4.53604e-06
-1.9086e-06
2.86504e-06
-1.21015e-06
-3.71549e-06
-3.30056e-06
-2.40548e-06
-4.17785e-06
-2.59946e-07
-4.20724e-06
4.20659e-06
6.46528e-10
-6.64283e-07
3.9494e-06
-3.28512e-06
-4.51749e-06
4.54932e-06
-3.18259e-08
-4.47025e-06
-4.7243e-08
-5.74447e-06
3.58286e-07
5.38618e-06
-4.0142e-06
-2.60397e-07
4.27459e-06
4.50111e-06
4.8208e-08
-7.99941e-07
-4.91835e-06
1.79283e-06
3.12552e-06
2.80674e-08
-2.60357e-06
-2.31478e-06
-6.14866e-08
-4.59012e-08
-4.10842e-06
4.15432e-06
-4.22476e-06
2.10561e-07
3.81815e-06
5.12032e-07
4.40039e-06
-4.2152e-06
4.18132e-06
-4.22722e-06
4.16376e-06
1.19704e-07
2.04709e-06
4.24309e-06
4.34314e-06
-8.23233e-07
-3.41379e-07
-5.67843e-06
-2.4828e-07
3.43191e-06
-3.18363e-06
-4.44889e-06
-2.13626e-08
-4.44822e-06
-6.64675e-10
4.48374e-06
-4.45169e-06
-3.2047e-08
4.43518e-06
4.85614e-08
-4.15702e-06
1.0271e-06
-1.41041e-06
3.83313e-07
-5.02365e-06
2.94024e-06
2.08341e-06
2.24849e-06
-4.50848e-06
2.25999e-06
-3.93583e-06
-3.66079e-07
-4.19317e-06
4.17238e-06
2.0783e-08
-4.36194e-06
4.20715e-06
1.54797e-07
-3.48392e-07
4.46388e-06
-4.11549e-06
-4.33069e-06
1.05933e-07
-4.80862e-06
5.99591e-06
-4.45682e-07
-3.89971e-06
-4.52092e-06
4.17252e-06
-3.54207e-06
-3.25802e-07
3.86787e-06
-3.31855e-06
4.40668e-06
2.84966e-08
-3.01717e-06
-8.07729e-07
8.9552e-07
-8.77905e-08
-4.15403e-08
1.62091e-07
-5.73693e-06
5.57484e-06
-3.21527e-06
-1.56023e-06
-4.4687e-06
4.37769e-06
9.10185e-08
-4.40023e-06
-6.84786e-08
-1.5819e-06
9.84545e-07
4.15612e-06
1.0236e-07
4.43753e-06
-7.37265e-07
4.39623e-06
-4.39131e-06
-4.92269e-09
-1.18102e-08
-4.07675e-06
4.08856e-06
4.60245e-06
-3.30178e-06
-5.54629e-08
4.56219e-06
2.57653e-06
-7.13873e-06
4.52042e-06
-4.52042e-06
6.99988e-07
4.10467e-06
-1.59535e-06
-2.82339e-06
-3.60382e-06
4.34405e-06
-7.40228e-07
-4.79704e-07
-3.88224e-06
4.16026e-06
-4.17207e-06
-3.98425e-06
6.72598e-08
3.91699e-06
7.64533e-07
-4.03814e-06
3.27361e-06
-4.18108e-06
4.1377e-06
4.33816e-08
2.67111e-06
1.93134e-06
-1.3082e-07
-6.7691e-07
-2.51282e-06
-2.51084e-06
-9.6234e-07
-4.46428e-06
4.56348e-07
-4.13213e-06
3.74456e-06
7.82081e-07
-3.47615e-06
-3.90537e-06
3.63304e-07
-3.98462e-06
2.3157e-06
4.52105e-06
-3.6754e-06
-8.4565e-07
7.72111e-07
3.62828e-06
-3.19904e-06
-1.51599e-06
-4.42234e-06
4.42234e-06
4.42461e-06
-4.25506e-06
-1.69548e-07
2.54814e-07
-4.19064e-06
-3.54021e-06
4.00266e-06
-4.62454e-07
-1.40216e-06
6.50132e-07
4.1216e-06
-4.14173e-06
2.01227e-08
4.331e-06
4.66827e-08
4.37513e-06
4.94856e-08
6.60928e-06
-4.2173e-06
-1.13387e-07
-3.70069e-06
3.03641e-06
4.15025e-06
7.11364e-08
4.36225e-06
-4.33784e-06
-2.44039e-08
-3.79775e-08
-6.0305e-08
4.55742e-07
-3.74088e-06
3.28514e-06
-1.30883e-07
-5.72716e-06
1.36983e-06
3.07335e-07
-3.84754e-06
-4.17183e-06
4.10819e-06
6.36464e-08
4.1623e-06
-3.73416e-07
-1.94337e-06
-2.58548e-06
-5.83239e-06
4.3218e-07
-2.34078e-06
-6.93076e-07
1.84134e-08
4.28719e-06
-3.81739e-06
-4.10842e-06
-4.11485e-06
1.07244e-07
4.00761e-06
5.80873e-06
8.22437e-07
3.34908e-06
1.67967e-06
4.05162e-06
-1.80313e-06
4.23058e-06
-2.40257e-07
9.70854e-06
-7.13201e-06
-6.64266e-06
-2.1289e-06
-2.28884e-06
-5.38727e-08
4.51133e-06
-4.22679e-06
-2.84533e-07
4.27706e-06
9.80633e-08
4.94475e-07
-4.0983e-06
-3.04132e-06
3.49706e-06
4.14521e-06
3.611e-08
3.25477e-06
1.44137e-06
4.34923e-06
1.62093e-07
4.34576e-06
-4.28348e-06
-6.22882e-08
-1.95803e-06
-2.76684e-06
-1.96074e-07
4.00141e-06
7.44781e-08
-4.6092e-06
3.60324e-06
-2.83871e-06
-6.07816e-08
9.07005e-08
3.51691e-06
-3.8171e-06
3.00185e-07
6.42751e-07
3.7013e-06
5.89584e-06
-5.73375e-06
2.05133e-06
2.59552e-06
-4.1607e-06
4.11219e-06
4.85164e-08
-9.56995e-08
-2.41971e-06
1.32636e-06
1.09335e-06
-4.34801e-08
4.52046e-06
-4.52046e-06
5.11142e-06
-2.96432e-06
-2.14711e-06
-3.744e-06
-6.30794e-07
3.15927e-06
1.49727e-06
4.32499e-06
2.4244e-08
-4.07675e-06
4.0448e-06
2.57962e-08
-4.0706e-06
3.31091e-06
4.6092e-06
-4.57912e-06
1.16231e-07
5.38103e-06
-4.76645e-06
4.16622e-06
-4.43593e-06
4.13832e-06
-9.35208e-08
3.73585e-06
-4.04273e-06
4.02153e-06
2.12006e-08
1.88583e-07
3.24477e-06
-3.43335e-06
-3.67781e-06
3.03861e-06
-2.75425e-07
3.84612e-06
5.24404e-07
-3.70446e-08
-3.55819e-06
-6.20812e-07
-5.32954e-06
3.37151e-06
6.34984e-09
-4.05359e-06
-4.31609e-06
-2.04822e-07
5.78005e-06
-3.12076e-06
4.1513e-08
-7.47595e-07
4.59655e-06
-3.84895e-06
-1.96405e-06
-4.5566e-07
4.02665e-06
-4.0698e-06
4.31421e-08
-4.16622e-06
4.13306e-06
1.7926e-06
2.55982e-06
-4.35241e-06
4.33094e-06
-8.14026e-07
3.59352e-07
3.84724e-06
4.24714e-06
4.1373e-07
4.63614e-07
5.63485e-07
-4.51997e-06
9.98203e-08
-3.58735e-06
4.08183e-06
-2.07822e-06
2.5104e-06
3.83098e-07
-3.76915e-06
3.38605e-06
-3.08316e-08
7.86443e-08
-3.75895e-06
-4.27718e-06
4.19863e-06
7.85534e-08
-4.10237e-06
4.26965e-07
2.67883e-06
2.43259e-06
-2.30914e-06
4.73336e-06
-2.42422e-06
4.74453e-06
-4.42913e-06
-3.15401e-07
1.18857e-07
2.91975e-06
-4.07138e-06
-4.34751e-08
4.13236e-06
5.96149e-09
2.04266e-06
-7.16301e-07
5.25993e-06
-4.72714e-06
3.7691e-06
5.79614e-07
2.37087e-07
-4.19538e-06
6.37197e-07
6.35839e-08
-3.65094e-06
4.68449e-06
-3.78697e-06
3.81942e-06
-2.32413e-07
-3.63622e-06
3.86863e-06
-4.11242e-06
4.28283e-06
-5.06457e-08
-6.23017e-06
4.98746e-07
-2.66219e-08
4.03433e-06
7.78588e-08
-3.80839e-06
-4.18052e-06
4.16328e-06
1.72424e-08
5.00637e-06
-2.90884e-06
-2.09753e-06
-3.50802e-06
-3.15382e-07
3.8234e-06
-9.36637e-09
-4.13311e-06
8.8888e-08
-4.47376e-07
4.41561e-06
-3.96824e-06
-4.04784e-06
4.06796e-06
-5.87535e-06
-8.57253e-07
-5.68269e-06
5.54019e-06
1.425e-07
3.2429e-06
1.64701e-06
3.79516e-06
3.40766e-07
-4.13592e-06
4.0337e-06
-1.65591e-07
3.25168e-06
1.62192e-06
-2.88091e-06
9.16856e-07
-4.07775e-06
3.54185e-06
-4.03015e-06
-5.47429e-06
5.45445e-06
1.98381e-08
4.94352e-06
-3.96871e-06
4.03381e-06
-1.22846e-08
2.48106e-07
-3.76196e-06
3.51385e-06
-6.08171e-08
-5.41347e-06
4.88814e-06
-4.88814e-06
-2.22544e-06
4.1941e-06
-1.96866e-06
-4.03661e-06
4.03661e-06
4.12879e-06
-3.64997e-06
-4.78822e-07
3.83685e-06
9.11509e-07
4.30141e-06
-3.5293e-06
4.25407e-06
-4.74797e-08
-3.32935e-06
-5.33223e-07
3.86257e-06
-5.40766e-06
5.42608e-06
-1.84186e-08
4.99199e-06
-3.00541e-06
-1.98658e-06
7.29004e-07
3.5724e-06
-5.46426e-06
5.43688e-06
2.73822e-08
-1.25521e-09
-3.98668e-08
5.39221e-06
-5.35235e-06
-5.4436e-06
5.4436e-06
-6.47346e-08
4.09139e-06
5.84206e-06
-5.4457e-06
-3.96366e-07
-5.4677e-06
5.42783e-06
5.46287e-06
-5.43508e-06
-2.77875e-08
-3.98002e-06
-8.97717e-08
4.65629e-06
-6.22251e-08
5.4267e-06
-5.36448e-06
5.42838e-06
-5.43862e-06
1.02332e-08
-4.10346e-06
5.4001e-06
-7.88515e-09
-4.17579e-06
4.13857e-06
3.72259e-08
-5.39909e-06
5.41861e-06
-1.95164e-08
4.13533e-06
-4.02809e-06
-5.45324e-06
5.39102e-06
4.18252e-06
-1.33e-06
1.99222e-06
2.60432e-06
-3.02333e-06
-2.30621e-06
-5.43434e-06
5.43434e-06
-5.45923e-06
-8.46948e-09
5.0536e-06
-9.26392e-07
-4.12721e-06
-3.56124e-06
2.41978e-06
1.3608e-07
5.40882e-06
-5.42559e-06
1.67728e-08
3.98086e-06
-3.9777e-06
-3.15828e-09
5.57733e-06
-5.43243e-06
-1.449e-07
5.38063e-06
2.81929e-08
5.37072e-06
5.59771e-08
-1.10981e-08
-4.02551e-06
-4.98144e-06
2.74088e-06
2.24056e-06
-4.01987e-06
4.04566e-06
5.39772e-06
-1.70959e-08
5.66446e-07
3.66414e-06
2.90333e-06
-1.11073e-06
-5.44542e-06
-7.82433e-09
4.44077e-06
2.6351e-06
-4.48967e-06
-6.84364e-07
-5.5458e-06
4.05222e-06
-4.07612e-06
2.39044e-08
-1.87912e-07
-5.49478e-06
4.21941e-06
-4.70254e-08
4.6907e-06
-3.20869e-06
-1.48201e-06
-4.06081e-06
5.40598e-06
-5.40598e-06
3.86936e-06
5.11358e-08
-3.92049e-06
4.16392e-06
-5.41734e-06
5.41023e-06
7.11941e-09
5.37894e-06
-5.43085e-06
5.19021e-08
3.42246e-06
-4.53049e-06
-1.44636e-08
-5.37921e-06
5.39368e-06
5.36679e-06
-5.38126e-06
-1.79305e-07
5.7195e-06
-4.29545e-06
4.65373e-06
-4.86426e-06
3.37389e-06
-8.55029e-08
5.53996e-06
4.65717e-07
2.39932e-06
4.66891e-08
5.00691e-06
-1.49335e-08
4.3333e-06
-4.31837e-06
-3.69369e-08
-5.43028e-06
-3.3984e-08
4.45832e-06
-4.46669e-07
-4.01165e-06
-5.3942e-06
5.3942e-06
3.16642e-06
-2.7257e-06
-5.43888e-06
5.4246e-06
1.42707e-08
4.15388e-06
-4.15388e-06
4.04341e-06
-6.25491e-08
5.40157e-06
-5.41025e-06
8.67852e-09
-5.21529e-06
1.42644e-06
5.06072e-09
-4.01228e-06
4.00722e-06
4.35163e-06
-3.63439e-08
5.41284e-06
5.00321e-08
3.28377e-06
5.60332e-07
-3.8441e-06
5.42945e-06
-2.93469e-08
4.21854e-06
-4.21854e-06
5.39496e-06
-5.37617e-06
-1.87849e-08
-4.12577e-06
4.09488e-06
3.08896e-08
5.43615e-06
-5.41969e-06
-1.64628e-08
-5.40316e-06
5.40316e-06
8.06112e-07
3.78369e-06
1.27877e-07
-3.91157e-06
-5.43932e-06
5.42514e-06
1.41724e-08
-2.01459e-08
-4.07343e-06
4.04973e-06
2.48554e-09
5.05537e-06
-9.54532e-07
-4.10083e-06
3.49289e-06
5.38125e-06
-5.39612e-06
1.48653e-08
4.15935e-06
4.44193e-06
6.26193e-08
3.80674e-06
5.51801e-06
-1.05174e-07
5.36352e-06
1.7731e-08
3.94735e-06
-3.94735e-06
-2.07822e-06
5.4572e-06
-5.41427e-06
-1.6574e-08
5.41154e-06
-5.39118e-06
-2.03644e-08
1.05972e-07
-5.51425e-06
5.40828e-06
5.67233e-07
-5.45538e-06
-5.42948e-06
5.42011e-06
9.37248e-09
3.92001e-06
-3.91762e-06
-2.38565e-09
4.12879e-06
-3.6436e-06
3.6436e-06
5.37443e-06
-1.09104e-08
-4.02943e-06
-3.76196e-06
3.79516e-06
4.18125e-06
-4.35513e-08
-1.226e-08
4.28437e-07
-5.33763e-06
5.4106e-06
-5.41236e-06
1.76348e-09
1.2915e-07
3.79085e-06
1.24948e-07
4.33337e-06
4.07454e-06
-3.11296e-08
-5.41742e-06
5.41109e-06
6.32871e-09
5.36964e-06
-5.38473e-06
1.5083e-08
-5.41248e-06
-2.63927e-08
5.39784e-06
-5.38362e-06
-1.42208e-08
4.07592e-06
7.79624e-08
5.40112e-06
2.3484e-08
-6.82723e-09
5.38909e-06
2.20062e-08
-8.18908e-10
-3.99263e-06
-5.4712e-06
5.77249e-08
-4.0491e-06
4.0491e-06
5.06854e-08
5.00468e-06
-4.11482e-06
7.85467e-07
2.84141e-08
5.39997e-06
2.25276e-07
-3.89301e-06
3.66774e-06
3.76717e-08
5.40593e-06
5.1577e-06
-5.625e-06
4.07255e-06
1.45994e-07
5.36679e-06
-4.14296e-08
3.82512e-06
-3.93691e-06
1.92885e-08
3.87957e-06
-5.95807e-07
-5.38021e-06
5.38021e-06
-5.40899e-06
-3.0321e-08
3.64997e-06
-3.78168e-06
1.31709e-07
-5.40593e-06
3.98396e-06
-3.9789e-06
5.39847e-06
2.66721e-08
-5.40095e-06
-4.80459e-06
3.34373e-06
-5.42409e-06
5.41504e-06
9.04622e-09
3.68667e-06
3.47035e-07
4.01228e-06
2.43228e-08
-5.36274e-06
5.39959e-06
-3.68481e-08
-4.07472e-06
4.03862e-06
3.60974e-08
-5.37991e-06
1.71629e-08
4.0577e-06
-7.96487e-09
2.24059e-07
-4.19452e-06
3.97046e-06
5.37869e-06
-5.40255e-06
2.38542e-08
4.37524e-06
-4.58006e-06
5.37809e-06
-5.3775e-06
-5.90762e-10
-3.43602e-06
3.43602e-06
-4.23128e-06
4.23128e-06
-5.37189e-06
-8.01427e-09
-2.5104e-06
2.97612e-06
-5.3873e-06
5.37937e-06
7.93207e-09
4.21142e-08
5.39223e-06
3.35922e-06
-2.97612e-06
-3.35922e-06
3.5478e-06
3.56582e-06
-4.09904e-06
4.92153e-06
-2.91565e-06
-2.00588e-06
-5.40656e-06
-2.2919e-08
-7.78551e-07
-3.5478e-06
4.32635e-06
5.39977e-06
2.03336e-08
-4.09127e-06
3.7911e-06
5.41531e-06
-5.40436e-06
-1.09528e-08
-5.38348e-06
-4.05464e-06
4.07383e-06
-1.26478e-07
-1.44445e-08
5.41217e-06
5.38942e-06
-4.00722e-06
-5.51794e-06
-3.23853e-06
4.13592e-06
-8.97393e-07
-5.35979e-06
-1.94217e-08
5.3825e-06
6.58344e-09
3.13886e-06
-3.20696e-06
6.8107e-08
6.19553e-09
3.78168e-06
-3.93398e-06
1.52299e-07
2.48469e-06
2.52168e-06
-5.40413e-06
-1.99552e-08
-4.09359e-06
5.35883e-06
-5.35434e-06
-4.48815e-09
5.39765e-06
1.73928e-08
-5.4133e-06
5.40748e-06
5.82495e-09
4.13827e-06
4.07592e-06
-5.3726e-06
5.36081e-06
1.17885e-08
5.41051e-06
-5.40811e-06
-2.39473e-09
-4.02404e-06
4.07255e-06
5.37006e-06
-5.37006e-06
2.14182e-08
5.41546e-06
-3.39072e-06
-7.24099e-07
5.38129e-06
-2.60029e-09
-6.91085e-07
3.67543e-06
-2.98435e-06
5.36751e-06
-5.36286e-06
-4.64505e-09
1.64487e-08
5.38953e-06
5.35774e-06
-5.36252e-06
4.7848e-09
-5.42042e-06
-5.4009e-06
-3.25334e-06
4.67035e-09
5.40555e-06
-5.7112e-09
-5.38645e-06
5.39216e-06
-5.37041e-06
5.35867e-06
1.1737e-08
-5.40391e-06
-9.39673e-09
-4.09053e-06
-3.95077e-06
1.38574e-08
5.39837e-06
9.10515e-09
-5.36553e-06
5.36327e-06
2.26773e-09
-5.36921e-06
2.02184e-08
5.34899e-06
5.40231e-06
1.30058e-08
-5.38558e-06
-1.87809e-08
-3.92872e-06
-1.8627e-08
5.39966e-06
-5.40297e-06
3.31496e-09
5.36776e-06
-5.37347e-06
-5.37868e-06
5.37125e-06
7.424e-09
5.36527e-06
-5.36092e-06
-4.34581e-09
4.0456e-06
3.49918e-09
5.40143e-06
9.07676e-09
-5.39388e-06
-1.42329e-08
-5.41367e-06
4.07383e-06
-5.36816e-06
5.35744e-06
1.07169e-08
3.56315e-06
-3.79556e-06
-5.35301e-06
5.37311e-06
-2.00946e-08
5.36962e-06
-5.37765e-06
8.0231e-09
-1.31516e-08
-5.39871e-06
-5.19638e-09
-1.40122e-08
-4.76623e-06
3.3812e-06
-9.21938e-09
5.36776e-06
-8.91402e-09
-5.75748e-09
-5.40326e-06
4.54469e-09
2.067e-06
4.5388e-06
-6.6058e-06
-1.11829e-06
5.39967e-06
-1.45468e-11
-5.38953e-06
9.97705e-09
5.38422e-06
-5.39275e-06
-1.0227e-08
-4.05894e-06
-5.40863e-06
5.37434e-09
1.89417e-08
5.38263e-06
-8.32029e-10
2.5602e-08
-5.31716e-06
5.29156e-06
5.40714e-06
-5.40439e-06
-2.74908e-09
-4.13149e-06
7.40768e-07
5.39673e-06
-5.38728e-06
-9.44706e-09
-5.40027e-06
-4.00441e-06
-2.1115e-07
5.36414e-06
-5.35989e-06
-4.24235e-09
2.82138e-08
-5.32221e-06
5.294e-06
-5.40578e-06
5.39571e-06
1.00716e-08
-4.08729e-06
4.05339e-06
3.38978e-08
4.72775e-09
-5.40572e-06
-2.90973e-09
-4.11089e-06
8.52956e-07
3.25794e-06
-5.39868e-06
-7.10242e-09
5.40535e-06
1.79172e-09
-5.39649e-06
-7.89355e-09
-2.15324e-08
-5.40608e-06
3.63864e-10
-3.88766e-06
-4.52175e-07
4.33983e-06
3.10725e-06
2.27121e-08
-5.38422e-06
4.05433e-06
-1.57114e-08
-5.36388e-06
5.36388e-06
-1.03739e-08
5.40276e-06
2.58434e-09
-4.28517e-09
8.42389e-09
8.68548e-09
5.4048e-06
-2.04131e-09
3.17841e-09
5.40339e-06
-5.40344e-06
5.00456e-11
3.89997e-06
-3.89997e-06
-5.39223e-06
5.38064e-06
1.1595e-08
5.37285e-06
-5.36735e-06
-5.50527e-09
-7.58999e-09
5.40143e-06
3.37657e-09
5.40168e-06
1.71041e-09
-2.01379e-09
5.40217e-06
5.39694e-06
-5.39992e-06
2.97863e-09
-5.44903e-06
-5.37968e-06
-1.25523e-08
4.15914e-06
-5.09506e-08
5.39212e-06
4.81944e-09
4.51764e-08
5.39621e-06
-5.3903e-06
-5.91086e-09
-3.85429e-06
3.85429e-06
3.0272e-08
5.37289e-06
-5.36297e-06
5.3716e-06
-8.62444e-09
5.39507e-06
1.13965e-09
4.05247e-08
4.03401e-06
5.38868e-06
-5.38663e-06
-2.04772e-09
-5.34617e-06
-1.68051e-08
5.37351e-06
-5.3779e-06
4.39533e-09
5.38519e-06
3.48784e-09
5.39515e-06
6.52961e-09
-5.3467e-08
-5.33298e-06
-8.57161e-09
-4.7531e-07
-3.62299e-06
5.36503e-06
-5.37023e-06
5.20332e-09
1.60505e-07
3.73946e-06
5.388e-06
-5.38294e-06
-5.06018e-09
-4.76804e-09
-9.24396e-08
-4.48056e-06
4.573e-06
-3.90266e-06
3.94717e-06
-4.45086e-08
-5.33984e-06
5.34156e-06
-1.72142e-09
5.38178e-06
6.22387e-09
-5.36585e-06
-3.35374e-06
5.42074e-06
5.3839e-06
-5.37625e-06
-7.65319e-09
-5.38911e-06
5.38924e-06
-1.34009e-10
5.37367e-06
-5.36881e-06
-4.86513e-09
-5.22753e-07
-4.60912e-06
5.13187e-06
5.37836e-06
5.54164e-09
-5.34395e-06
4.11089e-09
5.38468e-06
-5.37778e-06
-6.89329e-09
4.0456e-06
-4.14325e-06
4.14325e-06
5.38267e-06
-5.37253e-06
-1.01406e-08
-1.0413e-08
5.38484e-06
-8.47073e-09
-4.05118e-06
5.37507e-06
7.60418e-09
-5.38861e-06
-1.0068e-08
-5.33573e-06
5.33858e-06
-2.84801e-09
5.38919e-06
2.92663e-09
9.11526e-08
5.33493e-06
-1.10352e-09
5.38417e-06
1.36666e-08
4.03287e-06
2.14649e-08
6.33065e-10
-5.34102e-06
5.2909e-09
4.11199e-07
1.49627e-08
1.73695e-07
5.36865e-06
-5.37368e-06
5.03191e-09
-5.33007e-06
5.33628e-06
-6.21167e-09
9.58571e-08
-4.03878e-06
3.94292e-06
7.2192e-07
-4.20678e-06
3.48486e-06
1.54147e-06
3.81448e-06
-3.81448e-06
5.36492e-06
-5.36492e-06
-4.41499e-06
2.46363e-09
-5.37506e-06
4.11704e-06
5.38295e-06
1.21145e-08
-1.01489e-06
-1.88804e-06
2.90293e-06
-5.33787e-06
7.79766e-09
-5.34083e-06
-1.73427e-07
2.28246e-06
-3.76587e-06
1.4834e-06
-3.68061e-09
3.65115e-08
5.3366e-06
1.35421e-08
4.04416e-06
-5.39062e-06
1.13482e-08
5.36886e-06
3.42487e-06
-4.17896e-06
7.54093e-07
3.48476e-06
-1.2023e-06
-6.71699e-09
-5.36369e-06
5.39143e-06
-5.35492e-06
-5.37595e-06
-5.32303e-06
5.31798e-06
5.0562e-09
1.20125e-09
5.37817e-06
5.35935e-06
5.57492e-09
4.89725e-06
-3.25056e-06
-1.64669e-06
-1.87184e-08
4.09127e-06
5.37669e-06
8.50758e-09
4.89547e-06
-5.41822e-06
3.64069e-08
5.33645e-06
-6.34485e-09
-5.36181e-06
-5.32928e-06
6.24512e-09
-3.9144e-06
1.17333e-08
4.11325e-06
-3.2981e-06
-8.15143e-07
5.34977e-06
-5.35023e-06
4.57464e-10
-6.25284e-09
1.54395e-06
-2.16988e-06
-2.03253e-06
4.20241e-06
5.35976e-06
-5.368e-06
8.24203e-09
4.2685e-06
-4.21736e-06
-1.46094e-08
4.09053e-06
-3.5126e-06
2.49771e-06
5.35434e-06
-5.35972e-06
5.37668e-09
5.38515e-06
-5.34874e-06
-4.03409e-06
1.34129e-07
-4.04964e-06
4.04444e-06
5.19526e-09
3.93398e-06
-4.02641e-06
8.54523e-08
5.33315e-06
-4.08668e-06
3.96253e-06
-1.44381e-07
5.37678e-06
-5.37026e-06
-6.5167e-09
4.18623e-06
-3.99849e-06
-1.87741e-07
5.35935e-06
-3.23878e-09
-5.36229e-06
-3.96378e-06
1.30136e-08
4.97102e-07
3.04488e-06
-3.54198e-06
-5.31624e-06
5.31046e-06
5.77065e-09
5.35086e-06
1.87644e-08
-3.38859e-06
-7.10451e-07
3.89985e-08
5.33467e-06
5.36786e-06
-5.38041e-06
1.25523e-08
5.3613e-06
-9.89797e-09
-5.34445e-06
-4.19066e-06
-7.06617e-07
5.37061e-06
1.11606e-08
5.71045e-06
-1.17164e-06
-3.25829e-08
5.36532e-06
-5.33274e-06
5.3629e-06
4.96097e-09
-5.32382e-06
7.58958e-09
-5.33919e-06
-3.83067e-08
-1.02294e-08
5.2936e-06
-5.28337e-06
6.97184e-09
5.36309e-06
5.38585e-06
-5.34686e-06
-5.36886e-06
-1.9767e-08
4.09359e-06
-5.63092e-09
4.06011e-06
-2.0904e-07
-3.85107e-06
5.47421e-08
4.00537e-06
-5.30117e-06
5.29094e-06
-5.36806e-06
-1.16266e-08
3.40765e-06
7.05596e-07
-2.03081e-08
4.15186e-06
-4.13156e-06
-3.43997e-06
-2.8771e-06
3.3742e-06
-4.48671e-06
5.5517e-07
3.93154e-06
5.36079e-06
4.09705e-09
-5.36696e-06
5.33416e-08
5.33809e-06
5.35276e-06
-5.35356e-06
7.9361e-10
5.36446e-06
-5.34849e-06
-1.59739e-08
-5.37171e-06
3.54286e-09
-7.72961e-09
-4.05351e-06
4.06124e-06
7.8964e-10
5.37046e-06
-3.72586e-06
1.09083e-06
-5.3647e-06
5.36168e-06
3.01814e-09
-5.30876e-06
5.30243e-06
6.33272e-09
5.25207e-08
4.38654e-06
-4.25866e-06
3.2162e-06
-7.73402e-08
-2.79114e-08
5.36833e-06
-5.34042e-06
-4.78652e-06
2.61663e-06
5.35892e-06
4.74639e-09
-5.36567e-06
5.3645e-06
1.3859e-08
-5.01358e-06
5.01319e-08
4.96345e-06
8.41139e-09
-5.31717e-06
5.35391e-06
-5.34829e-06
-5.62549e-09
-1.69895e-07
5.38557e-06
-5.21568e-06
-8.03089e-09
-1.10133e-06
5.04006e-06
-3.93873e-06
-4.03409e-06
-4.47038e-06
5.35728e-06
-2.9394e-09
4.70884e-08
5.33806e-06
5.22352e-06
5.40796e-06
-5.40396e-06
-4.00293e-09
2.72908e-10
-4.06045e-06
4.06017e-06
-5.36038e-06
5.35673e-06
3.64152e-09
1.08326e-07
-4.03705e-06
3.92872e-06
5.36746e-06
-5.36523e-06
-2.22615e-09
-4.15592e-06
4.13561e-06
5.35168e-06
-5.34755e-06
-4.1236e-09
1.50224e-08
5.34944e-06
-5.91349e-08
5.38015e-06
-5.36379e-06
5.48646e-08
-3.95608e-06
5.36354e-06
-5.36261e-06
-9.28784e-10
5.3609e-06
3.13079e-09
-5.36303e-06
5.33345e-06
1.13148e-08
-5.34476e-06
1.28049e-09
5.36422e-06
-5.34919e-06
-1.27841e-08
-4.06189e-06
4.07467e-06
2.88056e-06
-4.23825e-06
1.35768e-06
-9.01796e-07
-4.11179e-06
-3.93921e-06
-8.85304e-07
-3.45704e-06
-5.35763e-06
3.09218e-08
5.32671e-06
-4.08661e-06
4.06189e-06
2.47265e-08
-1.24367e-06
-3.28682e-06
-5.35484e-06
4.78035e-06
-5.34377e-06
5.35319e-06
-9.4231e-09
-4.466e-06
4.43686e-07
4.02231e-06
4.26443e-06
-3.27681e-06
-9.8762e-07
-5.36251e-06
1.07642e-08
5.35175e-06
4.0686e-06
-4.01767e-06
1.12287e-08
5.34268e-06
-5.36309e-06
5.4521e-09
5.35843e-06
5.35763e-06
1.74383e-08
-8.92159e-10
-5.36163e-06
-1.7378e-08
-5.34732e-06
-5.34915e-06
4.06383e-06
-4.0137e-06
-2.27825e-08
1.1456e-06
3.5451e-06
-3.66883e-06
3.66883e-06
4.65636e-08
5.33929e-06
-6.07831e-06
-4.94497e-06
4.94525e-06
5.36491e-06
4.06087e-06
-4.03141e-06
-5.35668e-06
5.3393e-06
-4.52781e-06
4.63613e-06
5.35293e-06
-5.34826e-06
-4.67757e-09
6.49325e-09
5.35854e-06
-5.42117e-06
4.07903e-06
-4.09182e-06
-5.35515e-06
8.9811e-09
2.01707e-06
5.36827e-06
-5.36175e-06
-6.52105e-09
-5.36478e-06
5.35319e-06
-5.34873e-06
-4.46477e-09
-5.35229e-06
-5.34355e-09
5.34093e-06
-5.32456e-06
-4.0948e-06
4.92209e-06
5.34857e-06
-5.34682e-06
-1.74939e-09
-9.44375e-09
5.34289e-06
-4.08661e-06
3.54202e-06
-3.83861e-06
2.96593e-07
-6.58986e-06
6.58986e-06
5.36237e-06
5.36342e-06
-1.35874e-08
8.99311e-09
-5.36186e-06
5.38052e-06
-1.86553e-08
5.35157e-06
-5.34709e-06
-4.48071e-09
-4.44077e-06
4.22962e-06
1.65442e-08
5.34878e-06
-5.36244e-06
1.44874e-08
5.34795e-06
-5.34673e-06
5.35828e-06
-5.35111e-06
-4.1066e-06
-5.35799e-06
1.79048e-08
5.34009e-06
-4.11251e-06
-1.15767e-08
4.01342e-06
-4.04371e-06
3.02955e-08
5.34455e-06
-5.34906e-06
4.50487e-09
9.90217e-08
-5.35791e-06
5.34902e-06
8.88789e-09
5.35449e-06
-3.92618e-06
-3.89866e-06
-6.51207e-08
5.36139e-06
-5.36139e-06
-2.73432e-08
4.07295e-06
-5.35843e-06
5.35057e-06
-5.3461e-06
-4.4712e-09
5.36057e-06
-2.98809e-08
-5.35374e-06
-3.9858e-06
-4.94761e-07
-4.08729e-06
3.20252e-06
-3.57707e-06
3.74553e-07
-8.01826e-07
-3.45901e-06
4.26083e-06
5.34073e-06
-5.32659e-06
3.46261e-06
-4.03878e-06
-1.15505e-08
-5.35096e-06
5.35345e-06
-5.34901e-06
-4.4411e-09
4.11282e-06
-4.13335e-06
-1.1308e-06
-7.4723e-07
1.87803e-06
-4.26626e-06
4.30213e-06
4.12769e-06
-4.07295e-06
-1.61366e-08
-4.00285e-06
4.01898e-06
-1.9311e-08
-3.97213e-06
3.99144e-06
1.34179e-08
-4.16275e-06
4.14933e-06
3.80854e-08
-4.17949e-06
4.1414e-06
1.92711e-08
-4.09527e-06
4.076e-06
-7.83864e-09
-4.00819e-06
4.01603e-06
-8.98545e-09
-4.00485e-06
4.01383e-06
2.41047e-06
-1.62425e-06
-7.86221e-07
3.55555e-06
2.6123e-08
5.34221e-06
3.91942e-06
-3.9422e-06
2.27845e-08
1.25882e-08
-5.35134e-06
5.33875e-06
5.3652e-06
-5.3652e-06
5.29415e-06
-1.23368e-09
-5.29291e-06
-1.78587e-08
-5.33882e-06
5.35018e-06
-5.34552e-06
-4.65979e-09
-3.32543e-06
-4.3662e-06
-9.97974e-08
3.50605e-06
6.80178e-07
5.36092e-06
-5.35369e-06
-7.22918e-09
-4.08073e-06
4.2406e-06
1.77677e-08
5.34645e-06
-2.9415e-06
-1.84502e-06
3.99242e-08
3.84094e-06
-3.88087e-06
-2.74266e-06
-4.64307e-07
-9.20247e-07
-5.69703e-07
1.48995e-06
4.02534e-06
4.02597e-06
4.20179e-06
4.20201e-06
4.17277e-06
4.11895e-06
-1.87858e-08
-4.03594e-06
4.05473e-06
4.03837e-06
-5.49596e-09
-1.59048e-06
5.3519e-06
-5.33932e-06
-1.32276e-07
4.3048e-06
-5.36808e-06
-3.66462e-06
4.53095e-06
5.28714e-06
4.51846e-09
-5.29166e-06
5.37225e-06
-1.08636e-08
-5.36069e-06
1.92424e-08
5.34145e-06
-4.04302e-06
-4.05351e-06
4.05278e-06
-4.07157e-06
-3.68866e-06
4.45553e-06
-7.6687e-07
-9.57829e-09
-5.34841e-06
2.79497e-06
-3.48605e-06
8.8364e-09
-5.35712e-06
-5.3508e-06
-1.42332e-06
-2.08928e-06
-5.34122e-06
-1.01172e-08
4.1009e-06
1.27967e-06
3.11868e-06
5.34499e-06
-5.34087e-06
-4.11986e-09
4.07437e-06
-2.69834e-06
-1.37604e-06
-1.9401e-06
1.01985e-06
-2.24872e-06
4.86536e-06
-1.94974e-06
4.05309e-06
-2.10336e-06
1.68472e-09
5.35807e-06
-5.32143e-06
5.34871e-06
-5.35183e-06
3.12211e-09
-3.02941e-06
1.29197e-06
1.73744e-06
-1.78783e-08
-4.03478e-06
4.05266e-06
5.60246e-06
-2.4803e-06
-3.12216e-06
3.96864e-09
5.29018e-06
-1.16447e-06
-1.86493e-06
-3.90895e-06
3.94887e-06
3.33475e-06
2.20794e-07
-3.89004e-06
-8.22984e-09
-4.04034e-06
4.04857e-06
4.1736e-06
-4.04445e-06
-2.48499e-06
-9.42123e-07
3.42711e-06
-5.34056e-06
5.3421e-06
-1.54649e-09
-3.94892e-06
4.00378e-06
5.34646e-06
-5.34993e-06
-3.57449e-06
-9.43425e-08
-5.38622e-06
5.36586e-06
-2.78872e-06
4.03694e-09
5.34916e-06
4.66561e-06
-2.57854e-06
-2.08707e-06
3.94943e-06
-7.4691e-07
4.41206e-06
-5.71114e-07
4.04638e-06
-4.06426e-06
5.33919e-06
-5.33943e-06
2.39049e-10
4.05077e-06
-4.059e-06
4.90987e-09
-5.33644e-06
5.33153e-06
-2.25106e-06
-5.37664e-07
1.01816e-08
-4.10498e-06
-5.35152e-06
7.56287e-09
3.57449e-06