/*--------------------------------*- C++ -*----------------------------------*\
  =========                 |
  \\      /  F ield         | OpenFOAM: The Open Source CFD Toolbox
   \\    /   O peration     | Website:  https://openfoam.org
    \\  /    A nd           | Version:  12
     \\/     M anipulation  |
\*---------------------------------------------------------------------------*/
FoamFile
{
    format      ascii;
    class       surfaceScalarField;
    location    "0.15";
    object      phi;
}
// * * * * * * * * * * * * * * * * * * * * * * * * * * * * * * * * * * * * * //

dimensions      [0 3 -1 0 0 0 0];

internalField   nonuniform List<scalar> 
6438
(
-2.44811e-08
3.0436e-06
-3.01912e-06
-2.67425e-08
3.5357e-06
-3.50896e-06
-3.3157e-06
-5.61086e-07
3.87679e-06
3.14617e-06
-3.45225e-06
3.06083e-07
4.83556e-06
-3.7771e-06
-1.05847e-06
1.0992e-06
3.73636e-06
-3.76701e-06
4.51306e-07
-3.26754e-06
3.2408e-06
3.52892e-06
-4.21385e-06
6.84928e-07
3.282e-06
-3.84775e-06
5.65746e-07
-3.17415e-06
3.85867e-06
-6.84516e-07
7.62167e-07
-3.4798e-06
2.71763e-06
-3.92784e-06
7.53683e-07
3.01625e-06
1.38504e-06
-4.40129e-06
2.83308e-06
-2.85756e-06
-1.60106e-07
3.32053e-06
-3.16043e-06
-4.18347e-06
4.05659e-06
1.26884e-07
-3.1677e-06
3.84543e-06
-6.77734e-07
-3.92471e-06
7.57009e-07
1.24609e-06
2.63545e-06
-3.88153e-06
-9.08151e-07
-5.94159e-07
1.50231e-06
-1.93663e-07
3.4782e-06
-3.28454e-06
-3.22508e-06
-5.22489e-07
3.74757e-06
-3.94714e-06
1.73221e-06
2.21493e-06
-3.4269e-06
3.23323e-06
-3.04341e-06
3.69958e-06
-6.56167e-07
-3.71892e-06
4.93831e-07
3.52645e-06
-2.76428e-06
-3.2029e-06
-5.985e-07
3.8014e-06
-3.87288e-06
8.29466e-07
2.96943e-06
-3.72878e-06
7.59351e-07
1.67026e-08
-3.63196e-06
3.61525e-06
3.554e-06
-3.57399e-06
1.99887e-08
-3.521e-06
5.92637e-07
2.92837e-06
-4.75603e-06
7.69087e-07
3.98694e-06
3.34383e-06
-3.32712e-06
3.37332e-06
-2.27154e-07
2.18888e-06
3.06503e-06
-5.2539e-06
-1.08067e-06
4.09692e-06
-3.14046e-06
3.44978e-06
-3.09324e-07
-3.63878e-06
3.60512e-06
3.36605e-08
-1.51265e-06
2.75873e-06
3.25362e-06
2.83779e-08
-3.91085e-06
3.83148e-06
7.93737e-08
3.50548e-06
-5.36054e-07
-2.62925e-06
2.46914e-06
-4.5453e-06
7.68207e-07
3.45483e-06
3.32956e-07
-3.78778e-06
-2.68615e-06
-8.34849e-07
-4.92311e-07
-3.23234e-06
3.66747e-06
-4.35129e-07
-2.41003e-06
3.4766e-06
-1.06658e-06
3.48837e-06
-3.48837e-06
1.09545e-06
2.64559e-06
3.48133e-07
-2.99372e-06
1.55276e-06
7.53512e-07
-2.30627e-06
2.95491e-06
6.18679e-07
-3.57359e-06
2.85231e-06
-1.1201e-06
-1.65406e-06
-2.89124e-06
-3.43771e-08
3.07518e-06
-3.04081e-06
-3.79334e-06
3.79334e-06
-3.92861e-06
3.96817e-06
-3.95648e-08
1.58026e-07
2.92244e-06
-3.08047e-06
1.10291e-08
-3.57997e-06
3.56894e-06
3.32186e-06
-3.31084e-06
-3.62197e-06
4.1907e-07
-3.63161e-06
-2.79248e-07
-3.12339e-06
3.4318e-06
-3.08411e-07
3.45322e-07
2.99023e-06
-3.33555e-06
-3.67217e-06
3.53184e-06
1.40336e-07
3.58006e-06
-3.58006e-06
3.32816e-06
2.00765e-07
-2.18627e-06
-1.66147e-06
3.11738e-06
6.57396e-07
-3.77478e-06
-3.05893e-06
-5.7985e-07
2.7168e-06
2.10026e-06
-4.81706e-06
-4.20881e-06
2.69616e-06
-2.68793e-06
-1.52088e-06
3.70442e-06
-5.87037e-07
2.20886e-06
-6.56098e-07
3.00197e-06
3.41725e-07
-3.3437e-06
-3.70105e-06
-2.27563e-07
-5.24883e-07
-9.0052e-07
-2.89282e-06
4.01166e-06
-4.01166e-06
-2.65359e-06
-1.01858e-06
-2.40726e-07
-4.5153e-06
-3.46136e-06
3.44759e-06
1.37721e-08
1.24609e-07
-3.50703e-06
3.38242e-06
-3.85659e-07
3.38763e-06
3.46558e-06
8.84179e-08
-3.61999e-06
-5.63483e-07
-3.65442e-06
3.74687e-06
-9.2457e-08
3.8178e-06
-2.13634e-06
-1.68146e-06
3.42339e-06
-3.29878e-06
7.0476e-08
3.84157e-06
-1.95505e-06
-1.88651e-06
2.18453e-06
1.63327e-06
3.52363e-06
-3.52363e-06
-2.70299e-06
3.87688e-06
-1.17389e-06
-3.39617e-06
1.63831e-07
-4.64932e-07
-2.75013e-06
3.21506e-06
-3.18358e-06
1.24657e-07
-3.41081e-06
7.07825e-07
2.94217e-06
6.46974e-07
-3.58914e-06
-2.08301e-07
3.15047e-06
-3.07344e-06
3.55079e-06
-4.77345e-07
-3.26494e-06
1.24483e-07
2.25584e-06
1.58572e-06
3.40253e-06
-6.84898e-07
1.46312e-07
3.34206e-06
-2.9362e-06
-2.47379e-07
3.06914e-06
6.53373e-07
-3.72251e-06
-1.69731e-06
-1.46398e-06
3.16129e-06
2.23467e-06
-2.83406e-07
-1.95127e-06
-3.63196e-06
7.37785e-07
3.63868e-06
-4.37647e-06
-1.68777e-06
7.79617e-07
3.63145e-06
6.8127e-08
3.94027e-06
-2.03838e-06
-1.90189e-06
1.31937e-06
2.6209e-06
3.67368e-06
-6.04537e-07
4.48417e-06
-2.2953e-06
-3.32261e-06
1.02924e-08
3.31231e-06
-4.75241e-06
4.83772e-07
4.26864e-06
-5.48177e-08
-3.29959e-06
3.35441e-06
3.62852e-06
2.02959e-07
-2.79957e-06
2.76519e-06
-3.33977e-06
3.40672e-06
-6.69489e-08
3.38191e-06
-3.43672e-06
3.49024e-06
-3.49024e-06
3.43592e-06
9.97783e-08
3.44257e-06
-7.96988e-07
3.39569e-06
-3.23767e-06
-2.99173e-06
2.5268e-06
3.09879e-08
3.29731e-06
-3.3283e-06
3.88171e-06
-2.7194e-06
-1.16231e-06
-3.57997e-06
-5.18906e-08
4.0388e-08
-3.30793e-06
-3.31423e-06
1.9084e-07
3.78999e-08
3.30593e-06
3.19936e-06
-2.85403e-06
-3.29935e-06
2.25913e-07
3.34689e-06
-9.32622e-08
-1.19734e-07
2.9131e-06
-2.79337e-06
2.29405e-06
1.58766e-06
-3.43018e-06
7.37481e-07
2.6927e-06
3.49757e-06
-2.09696e-08
-4.62513e-06
4.19553e-07
4.20557e-06
-4.70245e-08
-3.28227e-06
3.3293e-06
2.18156e-06
5.31105e-08
2.09168e-07
3.2884e-06
3.25386e-06
2.72589e-07
3.36234e-06
-3.40936e-06
-3.50378e-06
-1.16204e-07
3.57465e-06
-3.8421e-06
2.67457e-07
-3.19507e-06
-1.27538e-07
-3.88901e-06
1.68584e-06
2.20317e-06
-1.53209e-10
3.36162e-06
1.16578e-07
-3.16476e-06
3.6805e-06
-5.15742e-07
-3.48575e-06
3.0039e-06
4.81846e-07
-4.71699e-07
1.21901e-06
-7.47314e-07
-1.09364e-06
-2.77924e-06
-3.50703e-06
-2.76819e-08
3.34955e-06
1.02845e-06
2.84842e-06
-5.634e-08
-3.41061e-06
-1.62855e-08
-7.25255e-08
-3.72784e-06
3.14955e-06
5.78293e-07
-2.18496e-07
2.78e-06
5.48156e-07
5.45038e-06
-2.38535e-06
-1.15284e-06
-2.77186e-06
3.41825e-06
4.73365e-08
-2.93353e-06
1.23622e-06
-1.31854e-06
-2.07974e-06
3.39828e-06
-1.17663e-06
-2.7512e-06
-1.91248e-06
4.62928e-06
-3.5267e-06
1.16087e-07
-3.32897e-06
3.34163e-06
-1.26594e-08
-2.74849e-06
2.62875e-06
-4.019e-08
-3.26254e-06
3.30273e-06
-3.58791e-06
6.12168e-08
2.99128e-06
-3.55935e-06
5.68063e-07
3.33304e-06
-3.37323e-06
2.97827e-06
-1.12715e-06
-1.85112e-06
-4.50584e-06
1.59639e-06
2.90944e-06
3.05339e-06
2.93494e-07
2.52161e-06
1.53498e-06
7.36303e-07
3.27536e-06
-8.75567e-07
-3.13609e-06
-3.63236e-06
3.59953e-06
3.28284e-08
-3.62224e-06
-1.012e-08
-3.60423e-06
-1.80117e-08
1.16177e-08
9.38305e-07
-5.24561e-06
4.30731e-06
-3.89362e-06
4.6314e-06
3.07466e-06
-3.04367e-06
3.28622e-06
1.37169e-07
2.67883e-07
2.71039e-06
-3.29959e-06
-2.99154e-06
2.97786e-06
3.70415e-07
-3.34828e-06
-1.67839e-08
-7.1122e-07
5.23547e-06
-4.52425e-06
4.96587e-06
-3.58082e-06
-1.50756e-06
2.26107e-06
-9.56172e-07
-2.93283e-06
-2.6043e-06
-1.90153e-06
-3.29846e-06
-2.05328e-07
-3.32214e-06
3.32159e-06
5.59061e-10
-5.23782e-07
3.11752e-06
-2.59374e-06
-3.56832e-06
3.5934e-06
-2.50786e-08
-3.53092e-06
-3.74018e-08
-4.5362e-06
2.8376e-07
4.25244e-06
-3.16865e-06
-2.05548e-07
3.37419e-06
3.5557e-06
3.76975e-08
-6.31743e-07
-3.88466e-06
1.41759e-06
2.46707e-06
2.18569e-08
-2.05582e-06
-1.82884e-06
-4.85281e-08
-3.6413e-08
-3.24349e-06
3.2799e-06
-3.33482e-06
1.66172e-07
3.01392e-06
4.04325e-07
3.47338e-06
-3.32707e-06
3.30102e-06
-3.33744e-06
3.28756e-06
9.43464e-08
1.61692e-06
3.34894e-06
3.42479e-06
-6.44789e-07
-2.69605e-07
-4.48281e-06
-1.95215e-07
2.70939e-06
-2.51418e-06
-3.51404e-06
-1.68754e-08
-3.51348e-06
-5.63529e-10
3.54125e-06
-3.51586e-06
-2.5389e-08
3.50325e-06
3.80009e-08
-3.28227e-06
8.11214e-07
-1.11373e-06
3.02516e-07
-3.96851e-06
2.32388e-06
1.64462e-06
1.77482e-06
-3.55928e-06
1.78446e-06
-3.10729e-06
-2.88879e-07
-3.311e-06
3.29455e-06
1.64482e-08
-3.44342e-06
3.32125e-06
1.22171e-07
-2.75089e-07
3.52395e-06
-3.24886e-06
-3.4187e-06
8.38855e-08
-3.79632e-06
4.73463e-06
-3.50928e-07
-3.07925e-06
-3.56913e-06
3.29405e-06
-2.79621e-06
-2.56873e-07
3.05308e-06
-2.61746e-06
3.48087e-06
2.23791e-08
-2.38149e-06
-6.37955e-07
7.07259e-07
-6.93038e-08
-3.26077e-08
1.28275e-07
-4.52916e-06
4.40088e-06
-2.53681e-06
-1.2302e-06
-3.52881e-06
3.4575e-06
7.13132e-08
-3.47483e-06
-5.39751e-08
-1.2486e-06
7.76897e-07
3.28147e-06
8.08677e-08
3.50211e-06
-5.79673e-07
3.47202e-06
-3.46841e-06
-3.60375e-09
-9.22609e-09
-3.21843e-06
3.22765e-06
3.63582e-06
-2.60737e-06
-4.38448e-08
3.60036e-06
2.03556e-06
-5.63592e-06
3.5671e-06
-3.5671e-06
5.53637e-07
3.2397e-06
-1.25907e-06
-2.22931e-06
-2.84467e-06
3.42925e-06
-5.84579e-07
-3.77424e-07
-3.06599e-06
3.28446e-06
-3.29368e-06
-3.14548e-06
5.24714e-08
3.09301e-06
6.03624e-07
-3.1883e-06
2.58467e-06
-3.30131e-06
3.26679e-06
3.45234e-08
2.10974e-06
1.52608e-06
-1.03194e-07
-5.34761e-07
-1.98571e-06
-1.9828e-06
-7.62606e-07
-3.52527e-06
3.60511e-07
-3.26254e-06
2.95663e-06
6.18012e-07
-2.7429e-06
-3.08321e-06
2.86997e-07
-3.14574e-06
1.8272e-06
3.56933e-06
-2.90149e-06
-6.67832e-07
6.09191e-07
2.86419e-06
-2.52305e-06
-1.19587e-06
-3.49082e-06
3.49082e-06
3.49337e-06
-3.35984e-06
-1.33526e-07
2.00764e-07
-3.30806e-06
-2.79514e-06
3.16038e-06
-3.65242e-07
-1.10642e-06
5.12259e-07
3.25376e-06
-3.26971e-06
1.59416e-08
3.42075e-06
3.67496e-08
3.45453e-06
3.88363e-08
5.21728e-06
-3.32916e-06
-8.95464e-08
-2.9215e-06
2.39772e-06
3.27662e-06
5.64215e-08
3.44461e-06
-3.42571e-06
-1.89053e-08
-3.02221e-08
-4.76672e-08
3.60379e-07
-2.95421e-06
2.59383e-06
-1.02911e-07
-4.52222e-06
1.08171e-06
2.41657e-07
-3.0368e-06
-3.29364e-06
3.24331e-06
5.03312e-08
3.28569e-06
-2.9441e-07
-1.53327e-06
-2.04071e-06
-4.60484e-06
3.4106e-07
-1.84862e-06
-5.47407e-07
1.49071e-08
3.38415e-06
-3.01374e-06
-3.24349e-06
-3.24849e-06
8.47488e-08
3.16374e-06
4.58534e-06
6.5013e-07
2.64448e-06
1.32369e-06
3.19883e-06
-1.424e-06
3.33923e-06
-1.89681e-07
7.66748e-06
-5.63192e-06
-5.24561e-06
-1.68155e-06
-1.8042e-06
-4.27489e-08
3.56177e-06
-3.33723e-06
-2.24539e-07
3.37744e-06
7.70918e-08
3.90412e-07
-3.23508e-06
-2.40066e-06
2.76104e-06
3.27239e-06
2.86279e-08
2.56779e-06
1.13663e-06
3.43367e-06
1.28101e-07
3.43123e-06
-3.38209e-06
-4.91344e-08
-1.54699e-06
-2.18179e-06
-1.5492e-07
3.15882e-06
5.87766e-08
-3.63884e-06
2.84488e-06
-2.24126e-06
-4.82647e-08
7.13838e-08
2.778e-06
-3.01417e-06
2.3617e-07
5.08029e-07
2.92122e-06
4.65405e-06
-4.52577e-06
1.61946e-06
2.04801e-06
-3.28466e-06
3.24666e-06
3.80053e-08
-7.5392e-08
-1.91114e-06
1.04857e-06
8.62571e-07
-3.45853e-08
3.56837e-06
-3.56837e-06
4.0382e-06
-2.34268e-06
-1.69551e-06
-2.9529e-06
-4.99352e-07
2.49273e-06
1.18095e-06
3.41484e-06
1.88266e-08
-3.21843e-06
3.19316e-06
2.04533e-08
-3.21361e-06
2.61315e-06
3.63884e-06
-3.61525e-06
9.16228e-08
4.24761e-06
-3.76384e-06
3.28786e-06
-3.49898e-06
3.26706e-06
-7.38978e-08
2.94902e-06
-3.19186e-06
3.17525e-06
1.66032e-08
1.48253e-07
2.56245e-06
-2.7107e-06
-2.90278e-06
2.39873e-06
-2.17164e-07
3.03496e-06
4.14822e-07
-2.95301e-08
-2.8095e-06
-4.89859e-07
-4.20959e-06
2.66261e-06
5.68999e-09
-3.20076e-06
-3.40742e-06
-1.61719e-07
4.56214e-06
-2.46189e-06
3.27529e-08
-5.90339e-07
3.62839e-06
-3.03805e-06
-1.55025e-06
-3.6089e-07
3.17896e-06
-3.21279e-06
3.38316e-08
-3.28786e-06
3.26325e-06
1.4154e-06
2.02011e-06
-3.43552e-06
3.41729e-06
-6.39287e-07
2.82985e-07
3.03755e-06
3.35213e-06
3.28367e-07
3.65968e-07
4.45246e-07
-3.56894e-06
7.86967e-08
-2.83171e-06
3.22212e-06
-1.64088e-06
1.98194e-06
3.02433e-07
-2.97533e-06
2.67289e-06
-2.46864e-08
6.10167e-08
-2.96665e-06
-3.37718e-06
3.31496e-06
6.22192e-08
-3.23822e-06
3.36729e-07
2.11591e-06
1.92228e-06
-1.82277e-06
3.73575e-06
-1.91298e-06
3.74576e-06
-3.4966e-06
-2.49155e-07
9.43847e-08
2.30434e-06
-3.21427e-06
-3.42245e-08
3.26238e-06
4.67573e-09
1.61174e-06
-5.63173e-07
4.15237e-06
-3.73282e-06
2.97284e-06
4.58963e-07
1.8672e-07
-3.31194e-06
5.0244e-07
4.98587e-08
-2.88157e-06
3.69774e-06
-2.98992e-06
3.01478e-06
-1.83406e-07
-2.87043e-06
3.05384e-06
-3.24676e-06
3.38171e-06
-4.00806e-08
-4.91868e-06
3.94432e-07
-2.12444e-08
3.18512e-06
6.15342e-08
-3.00571e-06
-3.30069e-06
3.28723e-06
1.3454e-08
3.95469e-06
-2.29894e-06
-1.65575e-06
-2.76929e-06
-2.4907e-07
3.01836e-06
-7.326e-09
-3.2616e-06
7.01889e-08
-3.53578e-07
3.486e-06
-3.13243e-06
-3.19555e-06
3.2115e-06
-4.63911e-06
-6.76487e-07
-4.48634e-06
4.37371e-06
1.12625e-07
2.55927e-06
1.2994e-06
2.99505e-06
2.69271e-07
-3.26432e-06
3.18387e-06
-1.30481e-07
2.56579e-06
1.27964e-06
-2.27467e-06
7.24421e-07
-3.21954e-06
2.79572e-06
-3.18138e-06
-4.32164e-06
4.30601e-06
1.5631e-08
3.9013e-06
-3.13221e-06
3.18496e-06
-9.70377e-09
1.96016e-07
-2.9704e-06
2.77438e-06
-4.80164e-08
-4.27363e-06
3.85922e-06
-3.85922e-06
-1.75776e-06
3.31146e-06
-1.5537e-06
-3.18675e-06
3.18675e-06
3.25998e-06
-2.88176e-06
-3.78213e-07
3.02727e-06
7.19603e-07
3.39581e-06
-2.78662e-06
3.35914e-06
-3.75511e-08
-2.62774e-06
-4.20923e-07
3.04866e-06
-4.26913e-06
4.28374e-06
-1.46115e-08
3.94336e-06
-2.37437e-06
-1.56899e-06
5.75418e-07
2.82039e-06
-4.31381e-06
4.29216e-06
2.16469e-08
-1.14317e-09
-3.1553e-08
4.2569e-06
-4.22534e-06
-4.2976e-06
4.2976e-06
-5.10796e-08
3.23004e-06
4.61263e-06
-4.2994e-06
-3.13234e-07
-4.31655e-06
4.285e-06
4.31264e-06
-4.29076e-06
-2.18861e-08
-3.14186e-06
-7.09259e-08
3.67616e-06
-4.92276e-08
4.2842e-06
-4.23497e-06
4.28551e-06
-4.29361e-06
8.09473e-09
-3.24001e-06
4.26313e-06
-6.2365e-09
-3.29706e-06
3.26773e-06
2.9327e-08
-4.26235e-06
4.27782e-06
-1.54683e-08
3.26469e-06
-3.17994e-06
-4.30514e-06
4.25591e-06
3.3023e-06
-1.05058e-06
1.57271e-06
2.05568e-06
-2.38619e-06
-1.82341e-06
-4.29023e-06
4.29023e-06
-4.30988e-06
-6.67493e-09
3.98953e-06
-7.31547e-07
-3.25799e-06
-2.81027e-06
1.90975e-06
1.07395e-07
4.27004e-06
-4.28331e-06
1.32738e-08
3.14266e-06
-3.14063e-06
-2.03349e-09
4.40307e-06
-4.28863e-06
-1.14443e-07
4.2477e-06
2.23415e-08
4.23989e-06
4.43092e-08
-8.82101e-09
-3.17793e-06
-3.93131e-06
2.16318e-06
1.76813e-06
-3.17346e-06
3.19391e-06
4.26125e-06
-1.35478e-08
4.46996e-07
2.89223e-06
2.29217e-06
-8.76772e-07
-4.299e-06
-6.14443e-09
3.50565e-06
2.07987e-06
-3.54384e-06
-5.407e-07
-4.37798e-06
3.19979e-06
-3.21902e-06
1.92365e-08
-1.48448e-07
-4.33789e-06
3.33177e-06
-3.72245e-08
3.70312e-06
-2.53268e-06
-1.17044e-06
-3.20634e-06
4.26779e-06
-4.26779e-06
3.05577e-06
4.12909e-08
-3.09706e-06
3.28779e-06
-4.27678e-06
4.27114e-06
5.6367e-09
4.24636e-06
-4.28743e-06
4.10635e-08
2.70018e-06
-3.57574e-06
-1.14542e-08
-4.24666e-06
4.25812e-06
4.23685e-06
-4.2483e-06
-1.41259e-07
4.51497e-06
-3.38934e-06
3.6731e-06
-3.84156e-06
2.66493e-06
-6.75047e-08
4.37352e-06
3.67449e-07
1.89362e-06
3.81449e-08
3.95139e-06
-1.18615e-08
3.41953e-06
-3.40767e-06
-2.92343e-08
-4.28695e-06
-2.68556e-08
3.5206e-06
-3.53214e-07
-3.16738e-06
-4.25849e-06
4.25849e-06
2.49852e-06
-2.15038e-06
-4.29376e-06
4.28247e-06
1.12932e-08
3.27956e-06
-3.27956e-06
3.19168e-06
-4.90238e-08
4.26431e-06
-4.27117e-06
6.85543e-09
-4.11777e-06
1.12623e-06
3.66295e-09
-3.16761e-06
3.16395e-06
3.43538e-06
-2.86598e-08
4.27313e-06
3.95157e-08
2.59252e-06
4.42198e-07
-3.03472e-06
4.28631e-06
-2.31753e-08
3.33114e-06
-3.33114e-06
4.2591e-06
-4.24423e-06
-1.48668e-08
-3.25762e-06
3.23288e-06
2.47422e-08
4.29157e-06
-4.2786e-06
-1.29763e-08
-4.2656e-06
4.2656e-06
6.37505e-07
2.98763e-06
1.01055e-07
-3.08868e-06
-4.29411e-06
4.2829e-06
1.12132e-08
-1.59888e-08
-3.21619e-06
3.19738e-06
2.40878e-09
3.99071e-06
-7.52443e-07
-3.23826e-06
2.7576e-06
4.24827e-06
-4.26003e-06
1.17531e-08
3.28418e-06
3.50636e-06
4.94306e-08
3.00634e-06
4.35628e-06
-8.31507e-08
4.23422e-06
1.40574e-08
3.1167e-06
-3.1167e-06
-1.64088e-06
4.30826e-06
-4.27433e-06
-1.30912e-08
4.27223e-06
-4.25618e-06
-1.60589e-08
8.38234e-08
-4.35338e-06
4.26955e-06
4.48085e-07
-4.30731e-06
-4.28634e-06
4.27892e-06
7.41624e-09
3.09477e-06
-3.09279e-06
-1.97585e-09
3.25998e-06
-2.87691e-06
2.87691e-06
4.24286e-06
-8.64045e-09
-3.18088e-06
-2.9704e-06
2.99505e-06
3.30134e-06
-3.45522e-08
-9.71876e-09
3.38341e-07
-4.21378e-06
4.27145e-06
-4.27288e-06
1.43712e-09
1.01551e-07
2.99322e-06
9.88271e-08
3.42177e-06
3.21578e-06
-2.41001e-08
-4.27688e-06
4.27184e-06
5.04064e-09
4.23912e-06
-4.25113e-06
1.20065e-08
-4.27289e-06
-2.08716e-08
4.26138e-06
-4.25012e-06
-1.12644e-08
3.21797e-06
6.15896e-08
4.2639e-06
1.85687e-08
-5.42921e-09
4.25447e-06
1.73687e-08
-6.50706e-10
-3.15249e-06
-4.31928e-06
4.56513e-08
-3.19654e-06
3.19654e-06
4.06667e-08
3.95004e-06
-3.2485e-06
6.20761e-07
2.25161e-08
4.263e-06
1.782e-07
-3.07507e-06
2.89687e-06
2.9889e-08
4.26771e-06
4.07193e-06
-4.44065e-06
3.21578e-06
1.15363e-07
4.23685e-06
-3.25757e-08
3.0202e-06
-3.10765e-06
1.48564e-08
3.06282e-06
-4.70301e-07
-4.24744e-06
4.24744e-06
-4.27014e-06
-2.39702e-08
2.88176e-06
-2.9853e-06
1.03533e-07
-4.26771e-06
3.14475e-06
-3.14109e-06
4.2618e-06
2.10926e-08
-4.26372e-06
-3.79388e-06
2.64104e-06
-4.28208e-06
4.27492e-06
7.16209e-09
2.90951e-06
2.7436e-07
3.16761e-06
1.91386e-08
-4.2336e-06
4.26277e-06
-2.91695e-08
-3.21784e-06
3.18942e-06
2.84143e-08
-4.24715e-06
1.35442e-08
3.20337e-06
-5.9966e-09
1.76282e-07
-3.31092e-06
3.13464e-06
4.24623e-06
-4.26511e-06
1.88788e-08
3.45408e-06
-3.6158e-06
4.24574e-06
-4.24527e-06
-4.69789e-10
-2.71162e-06
2.71162e-06
-3.34023e-06
3.34023e-06
-4.24083e-06
-6.31349e-09
-1.98194e-06
2.34939e-06
-4.25304e-06
4.24677e-06
6.26895e-09
3.33529e-08
4.25688e-06
2.65183e-06
-2.34939e-06
-2.65183e-06
2.80008e-06
2.81412e-06
-3.23504e-06
3.88795e-06
-2.3026e-06
-1.58536e-06
-4.26822e-06
-1.812e-08
-6.13895e-07
-2.80008e-06
3.41397e-06
4.26284e-06
1.60795e-08
-3.23013e-06
2.99232e-06
4.27516e-06
-4.2665e-06
-8.65842e-09
-4.24996e-06
-3.2012e-06
3.21719e-06
-1.00491e-07
-1.14286e-08
4.27268e-06
4.25462e-06
-3.16395e-06
-4.35613e-06
-2.55739e-06
3.26432e-06
-7.06932e-07
-4.23129e-06
-1.53722e-08
4.24924e-06
5.22477e-09
2.47781e-06
-2.53203e-06
5.42184e-08
4.907e-09
2.9853e-06
-3.10573e-06
1.20438e-07
1.96481e-06
1.98988e-06
-4.26631e-06
-1.57715e-08
-3.23232e-06
4.23055e-06
-4.22699e-06
-3.5577e-09
4.26117e-06
1.37537e-08
-4.27356e-06
4.26895e-06
4.61001e-09
3.2674e-06
3.21797e-06
-4.24144e-06
4.2321e-06
9.34329e-09
4.27136e-06
-4.26946e-06
-1.90313e-09
-3.17717e-06
3.21578e-06
4.23944e-06
-4.23944e-06
1.69591e-08
4.2752e-06
-2.67673e-06
-5.71769e-07
4.24827e-06
-2.03774e-09
-5.4496e-07
2.90118e-06
-2.35622e-06
4.23741e-06
-4.23374e-06
-3.66562e-09
1.30077e-08
4.25478e-06
4.22968e-06
-4.23348e-06
3.79868e-09
-4.27922e-06
-4.26377e-06
-2.56895e-06
3.70924e-09
4.26743e-06
-4.56327e-09
-4.25253e-06
4.25709e-06
-4.2397e-06
4.23042e-06
9.2852e-09
-4.26613e-06
-7.4295e-09
-3.22912e-06
-3.11924e-06
1.15883e-08
4.26174e-06
7.21263e-09
-4.23585e-06
4.23405e-06
1.7917e-09
-4.23874e-06
1.60004e-08
4.22274e-06
4.26487e-06
1.02848e-08
-4.25165e-06
-1.4847e-08
-3.10199e-06
-1.4704e-08
4.26279e-06
-4.2654e-06
2.60722e-09
4.23775e-06
-4.24232e-06
-4.24623e-06
4.24036e-06
5.86583e-09
4.23563e-06
-4.2322e-06
-3.42988e-09
3.19384e-06
2.70281e-09
4.26418e-06
7.18706e-09
-4.2582e-06
-1.12597e-08
-4.2738e-06
3.21719e-06
-4.23792e-06
4.22944e-06
8.47713e-09
2.81307e-06
-2.99648e-06
-4.22596e-06
4.24185e-06
-1.58852e-08
4.2391e-06
-4.24545e-06
6.34555e-09
-1.04348e-08
-4.26202e-06
-4.11255e-09
-1.1087e-08
-3.76315e-06
2.66951e-06
-7.29329e-09
4.23775e-06
-7.05527e-09
-4.57008e-09
-4.26561e-06
3.59395e-09
1.63263e-06
3.5827e-06
-5.21533e-06
-8.82627e-07
4.26278e-06
1.08056e-11
-4.25478e-06
7.90823e-09
4.25058e-06
-4.2573e-06
-8.10087e-09
-3.20437e-06
-4.26986e-06
4.24705e-09
1.5015e-08
4.2493e-06
-6.45666e-10
2.02574e-08
-4.19769e-06
4.17743e-06
4.2687e-06
-4.26653e-06
-2.16366e-09
-3.26162e-06
5.84894e-07
4.26047e-06
-4.25302e-06
-7.45432e-09
-4.26326e-06
-3.16154e-06
-1.66758e-07
4.23475e-06
-4.23139e-06
-3.35393e-09
2.23132e-08
-4.20167e-06
4.17936e-06
-4.26762e-06
4.25966e-06
7.9562e-09
-3.22679e-06
3.19987e-06
2.69226e-08
3.71238e-09
-4.26756e-06
-2.30244e-09
-3.24617e-06
6.73628e-07
2.57254e-06
-4.26201e-06
-5.60407e-09
4.26727e-06
1.43118e-09
-4.26027e-06
-6.26362e-09
-1.70546e-08
-4.26786e-06
2.96845e-10
-3.06939e-06
-3.55689e-07
3.42508e-06
2.4538e-06
1.79504e-08
-4.25058e-06
3.20086e-06
-1.14349e-08
-4.23456e-06
4.23456e-06
-8.1939e-09
4.26523e-06
2.03365e-09
-3.38679e-09
6.67139e-09
6.88128e-09
4.26684e-06
-1.60796e-09
2.50893e-09
4.26572e-06
-4.26576e-06
4.05264e-11
3.07876e-06
-3.07876e-06
-4.25692e-06
4.24775e-06
9.16745e-09
4.24165e-06
-4.23732e-06
-4.33958e-09
-6.00651e-09
4.26418e-06
2.6624e-09
4.26437e-06
1.35018e-09
-1.58468e-09
4.26472e-06
4.26064e-06
-4.26298e-06
2.34296e-09
-4.30177e-06
-4.24701e-06
-9.91321e-09
3.28354e-06
-4.02318e-08
4.25684e-06
3.79936e-09
3.56263e-08
4.26006e-06
-4.25539e-06
-4.67106e-09
-3.04287e-06
3.04287e-06
2.39708e-08
4.24163e-06
-4.23382e-06
4.24064e-06
-6.82061e-09
4.25916e-06
8.98567e-10
3.04998e-08
3.18528e-06
4.25412e-06
-4.25249e-06
-1.63183e-09
-4.22053e-06
-1.32878e-08
4.2422e-06
-4.24567e-06
3.46828e-09
4.25136e-06
2.75912e-09
4.25921e-06
5.15757e-09
-4.21818e-08
-4.21035e-06
-6.49857e-09
-3.75338e-07
-2.85974e-06
4.23546e-06
-4.23957e-06
4.10982e-09
1.26382e-07
2.95237e-06
4.25359e-06
-4.24958e-06
-4.0069e-09
-3.76669e-09
-7.33029e-08
-3.53567e-06
3.60897e-06
-3.08091e-06
3.11616e-06
-3.52538e-08
-4.21554e-06
4.21691e-06
-1.36692e-09
4.24866e-06
4.92828e-09
-4.23606e-06
-2.6469e-06
4.27954e-06
4.25035e-06
-4.2443e-06
-6.05336e-09
-4.25445e-06
4.25456e-06
-1.03071e-10
4.24232e-06
-4.23848e-06
-3.83602e-09
-4.13e-07
-3.63878e-06
4.05178e-06
4.24596e-06
4.38897e-09
-4.21882e-06
3.27082e-09
4.25097e-06
-4.24553e-06
-5.43766e-09
3.19384e-06
-3.27081e-06
3.27081e-06
4.24938e-06
-4.24136e-06
-8.02068e-09
-8.24184e-09
4.2511e-06
-6.69816e-09
-3.19816e-06
4.24335e-06
6.02474e-09
-4.25405e-06
-7.96134e-09
-4.21229e-06
4.21456e-06
-2.26264e-09
4.25453e-06
2.31027e-09
7.21369e-08
4.2116e-06
-8.61498e-10
4.25059e-06
1.07965e-08
3.18409e-06
1.67643e-08
5.03536e-10
-4.2165e-06
4.20253e-09
3.24461e-07
1.18455e-08
1.36991e-07
4.23836e-06
-4.24233e-06
3.96873e-09
-4.20783e-06
4.21274e-06
-4.91665e-09
7.60995e-08
-3.18885e-06
3.11275e-06
5.69959e-07
-3.32115e-06
2.75119e-06
1.21548e-06
3.01208e-06
-3.01208e-06
4.23539e-06
-4.23539e-06
-3.48275e-06
1.94096e-09
-4.24338e-06
3.2502e-06
4.24958e-06
9.5788e-09
-8.00653e-07
-1.49065e-06
2.2913e-06
-4.21401e-06
6.1805e-09
-4.21626e-06
-1.37113e-07
1.80185e-06
-2.97255e-06
1.1707e-06
-2.90637e-09
2.88802e-08
4.21297e-06
9.89572e-09
3.19348e-06
-4.25569e-06
8.96923e-09
4.23847e-06
2.70381e-06
-3.29921e-06
5.954e-07
2.75078e-06
-9.48929e-07
-5.31237e-09
-4.23439e-06
4.25635e-06
-4.22747e-06
-4.24407e-06
-4.20227e-06
4.19827e-06
3.99701e-09
9.62819e-10
4.24581e-06
4.23098e-06
4.40944e-09
3.8662e-06
-2.56664e-06
-1.29956e-06
-1.43473e-08
3.23013e-06
4.24463e-06
6.73584e-09
3.86495e-06
-4.27795e-06
2.88129e-08
4.21284e-06
-5.01495e-09
-4.23291e-06
-4.20723e-06
4.95779e-09
-3.08976e-06
8.85306e-09
3.24722e-06
-2.60385e-06
-6.43371e-07
4.2234e-06
-4.22376e-06
3.52823e-10
-4.95421e-09
1.21901e-06
-1.71311e-06
-1.60424e-06
3.31735e-06
4.23132e-06
-4.23782e-06
6.4976e-09
3.36752e-06
-3.32623e-06
-1.1151e-08
3.22912e-06
-2.77273e-06
1.97208e-06
4.22703e-06
-4.23127e-06
4.23577e-09
4.25138e-06
-4.22257e-06
-3.18496e-06
1.06208e-07
-3.19718e-06
3.19285e-06
4.32256e-09
3.10573e-06
-3.17904e-06
6.7633e-08
4.21019e-06
-3.22749e-06
3.12792e-06
-1.13995e-07
4.24474e-06
-4.23959e-06
-5.14684e-09
3.30454e-06
-3.15614e-06
-1.484e-07
4.23098e-06
-2.56069e-09
-4.23329e-06
-3.12943e-06
1.0192e-08
3.92579e-07
2.4038e-06
-2.79638e-06
-4.1969e-06
4.19234e-06
4.56266e-09
4.22424e-06
1.48612e-08
-2.67484e-06
-5.60208e-07
3.08657e-08
4.21145e-06
4.23764e-06
-4.24758e-06
9.94202e-09
4.23249e-06
-7.80511e-09
-4.21919e-06
-3.30611e-06
-5.57818e-07
4.23983e-06
8.82526e-09
4.5088e-06
-9.26104e-07
-2.58209e-08
4.23572e-06
-4.2099e-06
4.23373e-06
3.91583e-09
-4.20292e-06
6.02089e-09
-4.21493e-06
-3.03433e-08
-8.05759e-09
4.17904e-06
-4.17099e-06
5.51364e-09
4.23392e-06
4.25195e-06
-4.22108e-06
-4.23847e-06
-1.51286e-08
3.23232e-06
-4.46371e-09
3.20544e-06
-1.64318e-07
-3.04112e-06
4.33446e-08
3.16209e-06
-4.18503e-06
4.17698e-06
-4.23782e-06
-9.1933e-09
2.69017e-06
5.57052e-07
-1.59509e-08
3.27751e-06
-3.26155e-06
-2.71583e-06
-2.27112e-06
2.6637e-06
-3.54157e-06
4.38803e-07
3.10276e-06
4.23209e-06
3.24377e-09
-4.23698e-06
4.22136e-08
4.21413e-06
4.22577e-06
-4.22641e-06
6.31651e-10
4.23501e-06
-4.22239e-06
-1.2623e-08
-4.24072e-06
2.82523e-09
-6.09314e-09
-3.20027e-06
3.20636e-06
6.33005e-10
4.23973e-06
-2.94107e-06
8.61331e-07
-4.23522e-06
4.23282e-06
2.40446e-09
-4.191e-06
4.18599e-06
5.01113e-09
4.16842e-08
3.46096e-06
-3.35991e-06
2.53922e-06
-6.14123e-08
-2.21191e-08
4.23809e-06
-4.21597e-06
-3.77821e-06
2.0651e-06
4.23062e-06
3.74746e-09
-4.23595e-06
4.235e-06
1.09576e-08
-3.95752e-06
3.93153e-08
3.9182e-06
6.66664e-09
-4.19767e-06
4.22667e-06
-4.22223e-06
-4.43928e-09
-1.34517e-07
4.25169e-06
-4.11718e-06
-6.35416e-09
-8.70021e-07
3.97912e-06
-3.10909e-06
-3.18496e-06
-3.52431e-06
4.22934e-06
-2.3005e-09
3.72675e-08
4.21412e-06
4.12425e-06
4.26949e-06
-4.26652e-06
-2.9651e-09
6.14168e-10
-3.20645e-06
3.20583e-06
-4.23179e-06
4.22891e-06
2.87925e-09
8.56405e-08
-3.18763e-06
3.10199e-06
4.23738e-06
-4.23564e-06
-1.73827e-09
-3.28086e-06
3.26491e-06
4.22492e-06
-4.22166e-06
-3.26108e-09
1.18706e-08
4.22314e-06
-4.78193e-08
4.24738e-06
-4.23445e-06
4.21523e-08
-3.12262e-06
4.23429e-06
-4.23355e-06
-7.44706e-10
4.23218e-06
2.47002e-09
-4.23386e-06
4.2105e-06
8.91384e-09
-4.21942e-06
1.01448e-09
4.23482e-06
-4.22295e-06
-1.01736e-08
-3.20668e-06
3.21686e-06
2.27451e-06
-3.34603e-06
1.07151e-06
-7.10147e-07
-3.24737e-06
-3.11141e-06
-6.98039e-07
-2.72925e-06
-4.22963e-06
2.44748e-08
4.20515e-06
-3.22613e-06
3.20668e-06
1.94482e-08
-9.81729e-07
-2.59401e-06
-4.22738e-06
3.77384e-06
-4.21865e-06
4.22611e-06
-7.45744e-09
-3.5253e-06
3.49868e-07
3.17543e-06
3.36808e-06
-2.58777e-06
-7.80302e-07
-4.23349e-06
8.5226e-09
4.22496e-06
3.2122e-06
-3.17182e-06
8.8872e-09
4.21779e-06
-4.23392e-06
4.31451e-09
4.23024e-06
4.22956e-06
1.379e-08
-7.09064e-10
-4.23277e-06
-1.3787e-08
-4.22143e-06
-4.2229e-06
3.20854e-06
-3.16922e-06
-1.80179e-08
9.04718e-07
2.7984e-06
-2.89422e-06
2.89422e-06
3.68344e-08
4.21511e-06
-4.79876e-06
-3.90394e-06
3.90455e-06
4.23534e-06
3.20611e-06
-3.18251e-06
-4.22889e-06
4.2151e-06
-3.57502e-06
3.66066e-06
4.2259e-06
-4.22221e-06
-3.69602e-09
5.14824e-09
4.23031e-06
-4.27976e-06
3.21999e-06
-3.23016e-06
-4.22765e-06
7.11364e-09
1.59293e-06
4.23802e-06
-4.23287e-06
-5.14912e-09
-4.23525e-06
4.22611e-06
-4.22259e-06
-3.52476e-09
-4.22541e-06
-4.21726e-09
4.21638e-06
-4.20346e-06
-3.23254e-06
3.88591e-06
4.22245e-06
-4.22108e-06
-1.37015e-09
-7.46439e-09
4.21797e-06
-3.22613e-06
2.79648e-06
-3.03042e-06
2.33935e-07
-5.20406e-06
5.20406e-06
4.23335e-06
4.23416e-06
-1.07341e-08
7.12511e-09
-4.23285e-06
4.24768e-06
-1.48276e-08
4.22483e-06
-4.22129e-06
-3.54315e-09
-3.50565e-06
3.33889e-06
1.31123e-08
4.22261e-06
-4.23341e-06
1.14595e-08
4.22195e-06
-4.22097e-06
4.2301e-06
-4.22444e-06
-3.24207e-06
-4.22991e-06
1.41674e-08
4.21574e-06
-3.24654e-06
-9.17018e-09
3.16818e-06
-3.19185e-06
2.36717e-08
4.21928e-06
-4.22284e-06
3.55625e-09
7.84161e-08
-4.22984e-06
4.22281e-06
7.03025e-09
4.2273e-06
-3.09983e-06
-3.0783e-06
-5.1134e-08
4.23261e-06
-4.23261e-06
-2.15017e-08
3.21534e-06
-4.23024e-06
4.22404e-06
-4.2205e-06
-3.53633e-09
4.23191e-06
-2.36299e-08
-4.22649e-06
-3.14692e-06
-3.8875e-07
-3.22837e-06
2.52785e-06
-2.82363e-06
2.95776e-07
-6.3248e-07
-2.73092e-06
3.3634e-06
4.21624e-06
-4.20506e-06
2.7356e-06
-3.18885e-06
-9.14826e-09
-4.22434e-06
4.22632e-06
-4.22281e-06
-3.50726e-09
3.24697e-06
-3.26325e-06
-8.92085e-07
-5.90419e-07
1.4825e-06
-3.36779e-06
3.39617e-06
3.25869e-06
-3.21534e-06
-1.27014e-08
-3.16019e-06
3.17289e-06
-1.56542e-08
-3.13573e-06
3.15138e-06
1.05944e-08
-3.28733e-06
3.27673e-06
3.00855e-08
-3.30044e-06
3.27035e-06
1.52937e-08
-3.23343e-06
3.21814e-06
-6.0063e-09
-3.16493e-06
3.17094e-06
-6.65865e-09
-3.16232e-06
3.16898e-06
1.90256e-06
-1.28211e-06
-6.2045e-07
2.8071e-06
2.07e-08
4.21739e-06
3.09373e-06
-3.11253e-06
1.88009e-08
9.93634e-09
-4.22464e-06
4.21471e-06
4.23562e-06
-4.23562e-06
4.17951e-06
-8.67121e-10
-4.17865e-06
-1.4167e-08
-4.21472e-06
4.22373e-06
-4.22004e-06
-3.68167e-09
-2.62541e-06
-3.44686e-06
-7.8445e-08
2.76798e-06
5.36565e-07
4.23226e-06
-4.2265e-06
-5.75938e-09
-3.22154e-06
3.34842e-06
1.4057e-08
4.22076e-06
-2.32267e-06
-1.45554e-06
3.19974e-08
3.0318e-06
-3.0638e-06
-2.16498e-06
-3.67042e-07
-7.26419e-07
-4.49303e-07
1.17572e-06
3.17846e-06
3.17895e-06
3.31759e-06
3.31788e-06
3.29477e-06
3.25175e-06
-1.48741e-08
-3.18634e-06
3.20122e-06
3.18854e-06
-4.44583e-09
-1.25523e-06
4.22509e-06
-4.21516e-06
-1.04615e-07
3.39866e-06
-4.23774e-06
-2.89267e-06
3.5776e-06
4.17412e-06
3.37453e-09
-4.1775e-06
4.2412e-06
-8.59359e-09
-4.23205e-06
1.52292e-08
4.21682e-06
-3.1917e-06
-3.20027e-06
3.1995e-06
-3.21437e-06
-2.91194e-06
3.51628e-06
-6.04335e-07
-7.57468e-09
-4.22233e-06
2.20738e-06
-2.75234e-06
6.97443e-09
-4.22921e-06
-4.2242e-06
-1.12348e-06
-1.64926e-06
-4.21665e-06
-7.99351e-09
3.23749e-06
1.01048e-06
2.46343e-06
4.21962e-06
-4.21637e-06
-3.25597e-09
3.21593e-06
-2.12932e-06
-1.08661e-06
-1.53173e-06
8.05308e-07
-1.7757e-06
3.8408e-06
-1.53916e-06
3.19934e-06
-1.66018e-06
1.38473e-09
4.22994e-06
-4.20098e-06
4.22256e-06
-4.22503e-06
2.46332e-09
-2.39137e-06
1.01951e-06
1.37186e-06
-1.4093e-08
-3.18545e-06
3.19954e-06
4.4226e-06
-1.95722e-06
-2.46538e-06
3.09319e-09
4.17642e-06
-9.19384e-07
-1.47198e-06
-3.08581e-06
3.1178e-06
2.63303e-06
1.74071e-07
-3.07137e-06
-6.48936e-09
-3.18966e-06
3.19615e-06
3.29439e-06
-3.19284e-06
-1.96128e-06
-7.44008e-07
2.70529e-06
-4.21615e-06
4.21737e-06
-1.21792e-09
-3.11718e-06
3.15933e-06
4.22077e-06
-4.22351e-06
-2.82205e-06
-7.21667e-08
-4.25222e-06
4.23616e-06
-2.2015e-06
3.18296e-09
4.22292e-06
3.68279e-06
-2.03533e-06
-1.64745e-06
3.11683e-06
-5.88971e-07
3.48302e-06
-4.51215e-07
3.19456e-06
-3.20865e-06
4.21506e-06
-4.21522e-06
1.58259e-10
3.19768e-06
-3.20417e-06
3.87522e-09
-4.21286e-06
4.20899e-06
-1.77691e-06
-4.24589e-07
8.86164e-09
-3.2414e-06
-4.22479e-06
5.9779e-09
2.82205e-06