/*--------------------------------*- C++ -*----------------------------------*\
  =========                 |
  \\      /  F ield         | OpenFOAM: The Open Source CFD Toolbox
   \\    /   O peration     | Website:  https://openfoam.org
    \\  /    A nd           | Version:  12
     \\/     M anipulation  |
\*---------------------------------------------------------------------------*/
FoamFile
{
    format      ascii;
    class       volVectorField;
    location    "0.26";
    object      U;
}
// * * * * * * * * * * * * * * * * * * * * * * * * * * * * * * * * * * * * * //

dimensions      [0 1 -1 0 0 0 0];

internalField   nonuniform List<vector> 
4428
(
(0.00197781 0.000749692 1.01427e-16)
(-0.00200353 0.000825255 -9.03814e-17)
(-0.00180379 0.000825982 0)
(-0.00188358 0.000792689 0)
(0.00181443 0.00149807 8.16378e-17)
(0.00186392 0.00153098 3.20714e-21)
(-0.00179955 0.00102025 0)
(-0.002021 0.000721844 1.46408e-16)
(0.00193197 0.000783048 -2.49061e-16)
(0.00198989 0.000584654 9.95359e-17)
(-0.00182787 0.00064027 -1.73327e-16)
(0.00186031 0.0007685 -1.7686e-16)
(-0.00206999 0.000447938 -2.03655e-16)
(-0.000653045 0.00232847 -9.58139e-17)
(0.00194706 0.000757955 0)
(0.00177209 0.000656214 0)
(0.00199989 0.000717052 0)
(-0.00182937 0.000637879 0)
(-0.00208323 0.000446628 0)
(0.00196634 0.000762856 0)
(0.00070205 0.000575272 -4.48032e-16)
(-0.00199343 0.000765679 -1.77699e-16)
(-0.00188507 0.000797803 0)
(-0.00203979 0.000705928 0)
(-0.00198414 0.000756519 2.26613e-17)
(-0.00188616 0.000704364 0)
(-0.00190205 0.000996074 1.03354e-16)
(0.00190585 0.000631648 2.078e-16)
(0.00177561 0.00087185 0)
(-0.00208986 0.000493947 0)
(0.00192787 0.000489313 0)
(-0.0020171 0.000765166 -1.84201e-16)
(0.00196586 0.000625024 -9.0018e-17)
(-0.00204325 0.000986703 -2.77416e-16)
(-7.39087e-06 0.00268827 4.69762e-17)
(-0.00201319 0.000782513 1.99859e-16)
(-0.00196838 0.000983878 -4.43744e-21)
(0.00183247 0.00247046 1.2704e-17)
(-0.000307008 0.00232696 -2.62228e-17)
(-0.00188748 0.000825535 0)
(0.00197613 0.00071196 0)
(0.0018138 0.000590646 0)
(0.00189434 0.000647302 9.24304e-17)
(-0.0020516 0.000664565 1.66055e-16)
(0.00197718 0.000636484 0)
(0.00161771 0.000602032 0)
(0.00189773 0.00180752 -9.97815e-17)
(-0.0018849 0.000907256 2.0314e-16)
(-0.00190931 0.000794612 2.24455e-16)
(-0.00196948 0.00086232 0)
(0.0019718 0.000819793 0)
(0.00177865 0.00083799 1.8812e-16)
(0.00200693 0.000573621 -9.13169e-17)
(0.00180287 0.000857062 0)
(0.00183707 0.000771814 -1.39781e-17)
(0.00117767 0.000568657 0)
(0.00174719 0.000824884 -9.29911e-17)
(-0.00193589 0.000641624 0)
(0.00164654 0.0017625 1.82957e-16)
(0.00192772 0.000669263 -1.82008e-16)
(0.00201504 0.000775929 1.67094e-16)
(-0.0020089 0.000642714 0)
(0.00176007 0.000703419 2.79948e-16)
(-0.00201227 0.000761257 9.26966e-17)
(-0.00200893 0.000784046 0)
(0.00185206 0.000814552 0)
(-0.00205255 0.000676731 1.73154e-16)
(-0.00189927 0.000808348 -1.85817e-16)
(0.00191023 0.000683849 -1.82182e-16)
(-0.00193867 0.000843603 -3.61902e-16)
(-0.0020602 0.00064878 -9.16115e-17)
(0.00194538 0.000883489 2.12649e-16)
(0.00209779 0.000909054 5.80492e-17)
(-0.00187275 0.000777443 4.46945e-17)
(0.00197124 0.000687218 1.96646e-16)
(-3.44078e-05 0.00266502 -1.83291e-16)
(0.00200354 0.000914369 0)
(0.00206234 0.000794594 0)
(-0.00181604 0.00102658 -1.18142e-16)
(0.00141962 0.000678561 -4.37656e-21)
(0.00175988 0.000900107 -1.97535e-16)
(-0.00204706 0.000650704 0)
(0.00190601 0.000907817 -1.8106e-16)
(0.00191163 0.000786422 -1.72063e-16)
(0.00200313 0.000713285 3.183e-16)
(-0.00217854 0.000706295 -2.54683e-16)
(-0.00024819 0.00298214 1.1514e-16)
(-0.00204382 0.000747849 0)
(-0.00200719 0.000768916 -9.60324e-17)
(0.00183801 0.000806172 2.04738e-17)
(0.00197249 0.000596972 8.36637e-17)
(0.00202298 0.000724253 -1.59366e-16)
(-0.00202368 0.000805996 0)
(-0.00199283 0.000740743 0)
(-0.00200816 0.000784871 9.81677e-17)
(-0.00195393 0.000811016 1.67117e-16)
(0.00197254 0.000785234 1.13528e-16)
(-0.00202173 0.000767394 -1.199e-16)
(-0.00206242 0.000643625 9.2869e-17)
(0.00186129 0.000985719 0)
(0.00187451 0.000846339 -2.25138e-17)
(0.00193468 0.00075619 0)
(0.00198236 0.000700809 0)
(0.00179382 0.000670206 -1.87983e-16)
(0.00172653 0.000801724 -1.037e-16)
(0.00182754 0.000884214 2.49069e-21)
(0.00192246 0.000791244 1.90323e-16)
(-0.00197204 0.000937382 -1.22453e-16)
(0.0019687 0.000785853 -1.2082e-16)
(0.00189644 0.000920835 0)
(0.00192744 0.000645585 1.64693e-16)
(0.00193941 0.000745911 -1.94801e-16)
(-0.0018708 0.000767464 2.6567e-21)
(0.00184762 0.000700227 1.65962e-16)
(-0.00110934 0.000698885 1.15541e-16)
(-0.00205287 0.000630669 1.8023e-16)
(-0.000451629 0.00258852 0)
(0.000798527 0.000621313 5.24742e-17)
(-0.00207798 0.000696277 8.87637e-17)
(0.00206356 0.000794826 -1.12858e-16)
(0.00203972 0.000795816 2.11526e-16)
(-0.00181819 0.00103392 2.41272e-16)
(0.00134167 0.00219507 -1.96892e-16)
(0.00194915 0.000630802 -3.03614e-16)
(-1.22924e-05 0.00268863 1.78756e-16)
(-0.00201344 0.000760835 0)
(-0.00204227 0.000693238 -2.72253e-16)
(0.00185915 0.000768173 9.95075e-17)
(-0.00200986 0.000817872 -3.04095e-16)
(-0.00201056 0.000781563 9.66752e-17)
(-0.00205831 0.000654152 -1.8713e-16)
(-0.00197244 0.000811374 0)
(0.00198314 0.00079147 2.24122e-16)
(0.00190593 0.000709653 0)
(0.00193208 0.000755095 0)
(0.00206449 0.000891967 6.54179e-21)
(0.00201577 0.000840476 -2.43665e-16)
(-0.00204862 0.000638647 -1.82385e-16)
(-0.0020149 0.000781168 -1.83548e-16)
(-0.00199616 0.000809087 1.43946e-16)
(-0.00198034 0.000948065 -1.23704e-16)
(-0.00201783 0.000729597 -9.67469e-17)
(0.00190191 0.000760831 0)
(0.00191156 0.000781742 -1.99426e-16)
(0.00200383 0.000752681 0)
(0.00188636 0.000723016 9.67633e-17)
(0.00202002 0.000899564 1.28471e-16)
(-5.35808e-05 0.00190966 -9.13935e-17)
(0.00211127 0.000596563 2.88884e-16)
(2.55278e-06 0.00268174 4.544e-17)
(-0.00201213 0.000760572 -1.9951e-16)
(-0.0013132 0.000580733 1.00283e-16)
(0.00188217 0.000627796 -9.60047e-21)
(0.00209491 0.000727575 -2.48619e-16)
(-0.00200921 0.000781318 2.9159e-16)
(0.00204373 0.000766086 0)
(0.00184291 0.00124509 -1.77125e-16)
(0.00199082 0.000598498 -9.4847e-17)
(0.00194161 0.000719974 -1.78764e-16)
(-0.0020293 0.00066844 -9.12331e-17)
(-0.00200103 0.000830537 1.95445e-16)
(0.00195405 0.000771315 0)
(0.00209048 0.000661812 0)
(-0.000705612 0.00031545 -2.17176e-16)
(-0.00213214 0.000881594 1.19562e-16)
(-0.00205024 0.00064441 0)
(-0.00200651 0.000735734 0)
(0.00208705 0.000703572 0)
(-0.00200377 0.000778292 1.90427e-21)
(-0.00202589 0.000865336 9.36773e-17)
(-0.00205712 0.000680715 -9.37984e-17)
(0.00201963 0.000797376 3.95424e-21)
(-0.00202488 0.000765575 0)
(0.00183118 0.000768495 0)
(0.00185764 0.0024047 -1.16372e-17)
(-0.00215581 0.000895332 2.29074e-16)
(0.00202702 0.000735817 0)
(0.00178144 0.000882975 2.14586e-16)
(0.00189323 0.000792629 2.17937e-16)
(-0.00215506 0.00086719 1.14317e-16)
(-0.000227971 0.00271135 -7.09516e-21)
(-0.00194078 0.000793838 1.75076e-16)
(-0.00202728 0.000711836 1.91949e-16)
(0.00184891 0.000714845 0)
(-0.00201128 0.000760923 3.00568e-16)
(-0.00200763 0.000922016 -9.52159e-17)
(0.00199497 0.000771109 0)
(-0.00200655 0.000780168 0)
(0.00169499 0.000743167 3.43567e-16)
(0.00195341 0.000862271 0)
(0.00194379 0.000711331 0)
(0.00203381 0.000963226 2.58466e-17)
(0.00197746 0.000706129 0)
(0.00201345 0.000830094 -3.67868e-16)
(-0.00195803 0.00091154 0)
(-0.00194756 0.000898519 -1.80865e-16)
(-0.00194753 0.000896081 2.70921e-16)
(-0.00191753 0.000880492 8.88766e-17)
(0.00273409 0.00158232 1.48755e-16)
(-0.000605106 0.00287005 0)
(0.00198388 0.000902894 2.13761e-16)
(-0.00202537 0.000733582 -1.94078e-16)
(0.00155701 0.000833397 -1.90307e-16)
(-0.00203637 0.000665735 0)
(0.0018097 0.00069479 -1.7663e-16)
(0.00196214 0.0006894 -2.98055e-18)
(-0.00199976 0.000779819 9.32572e-17)
(-0.000443824 0.00310649 -1.77905e-16)
(-0.000962849 0.00269133 1.11839e-17)
(0.00133106 0.000700842 0)
(0.00200468 0.000856846 0)
(0.00214399 0.000773504 0)
(0.00199978 0.000840939 5.95053e-21)
(-0.00202208 0.000712961 0)
(0.00195181 0.000746682 0)
(-0.00197067 0.000891216 -1.40087e-16)
(-0.00194917 0.000878225 1.83782e-16)
(3.25638e-05 0.00268523 -1.8469e-16)
(-0.00189166 0.000711946 1.99297e-16)
(-0.00193911 0.00089076 -4.53588e-17)
(0.00200099 0.00083006 1.95362e-16)
(0.00207966 0.000730083 -6.15107e-17)
(-0.00199584 0.000776072 1.85468e-16)
(0.00203389 0.000873766 0)
(-0.00195722 0.000897231 0)
(-0.00201128 0.000761953 0)
(-0.00204379 0.00077641 -1.08725e-16)
(0.00194368 0.000701466 -1.93042e-16)
(0.00185788 0.000775385 3.73244e-21)
(-0.00200598 0.000780185 0)
(-0.00201322 0.000731851 9.83232e-17)
(-0.00123543 0.00245158 0)
(0.00169018 0.00099848 0)
(0.000292321 0.00295849 8.61732e-17)
(0.00189212 0.000756135 5.74623e-17)
(-0.00196801 0.000870357 0)
(-0.00195808 0.000886034 0)
(-0.00195662 0.000880679 1.88215e-16)
(-0.00196483 0.000877944 -1.86172e-16)
(-0.00203266 0.000676497 2.97767e-16)
(-0.000198256 0.000489791 5.13886e-17)
(-0.00203473 0.000776297 -5.90056e-17)
(-0.00193696 0.000879296 6.23694e-17)
(0.00196569 0.000770027 2.23733e-17)
(-0.00201877 0.000718868 -9.62576e-17)
(-0.000553598 0.00200447 -1.01155e-16)
(-0.00199679 0.00095188 1.89324e-16)
(-0.00202033 0.000721293 1.92814e-16)
(0.00232719 0.00155657 0)
(-0.000225937 0.0020276 0)
(-0.00210209 0.00087319 6.11876e-21)
(0.00190837 0.000759703 2.04394e-16)
(0.00202395 0.000820631 -1.05648e-16)
(-0.00195294 0.000878796 1.81887e-16)
(0.00175925 0.000656686 -1.31316e-16)
(0.00034275 0.000234358 1.07918e-16)
(-0.00195944 0.000881255 -3.65585e-16)
(4.44989e-05 0.00266752 0)
(-0.00228636 0.000835274 -3.66782e-17)
(-0.00197184 0.000878051 -2.1176e-16)
(-0.0019648 0.000878772 1.90018e-16)
(-0.000694884 0.000352926 2.17218e-16)
(-0.00201115 0.000736545 0)
(0.00210229 0.00046971 1.23011e-16)
(-0.00195657 0.000876271 -9.3784e-17)
(-0.00199873 0.000777021 -1.00072e-16)
(0.00199043 0.000721582 0)
(-0.00196061 0.00088033 0)
(-0.00135368 0.00296666 1.37275e-16)
(-0.00207468 0.000700418 -1.83736e-16)
(0.00194753 0.000673543 0)
(0.00203725 0.000913559 2.37176e-16)
(0.00194938 0.000776751 1.23123e-17)
(-0.000413955 0.00216621 2.58438e-16)
(-0.00201269 0.000760846 0)
(0.00189253 0.00079799 1.9813e-16)
(0.00196591 0.000755022 -2.6356e-16)
(-0.00201511 0.000730735 1.94295e-16)
(0.0020641 0.000968582 0)
(0.000329264 0.00023164 -1.10465e-16)
(-0.00215612 0.000902736 -2.3386e-22)
(-0.00037031 0.00276824 9.63396e-17)
(0.00195774 0.000728222 0)
(-0.00202904 0.000685006 -2.99174e-16)
(0.00180785 0.00102917 3.93342e-16)
(0.00177803 0.00104578 -9.12432e-17)
(0.00197593 0.000772532 -1.32949e-17)
(0.00197579 0.000664672 -1.26246e-16)
(0.00197433 0.000778886 1.94436e-16)
(0.002 0.000734542 0)
(-0.00220801 0.000681338 1.43577e-16)
(-0.0020832 0.000677618 -1.8709e-16)
(-0.00197239 0.000866337 -7.47191e-19)
(0.00187482 0.000889215 0)
(0.00183567 0.000785064 2.1467e-16)
(0.000631293 0.000236104 2.31985e-16)
(-0.00200036 0.000746705 1.95532e-16)
(-0.00195489 0.000874642 2.07961e-16)
(-0.00199793 0.000894716 0)
(-0.00123705 0.00289673 1.96759e-16)
(-0.00201834 0.000735418 5.92011e-21)
(0.00186179 0.000684993 1.14693e-16)
(-0.00200916 0.000740538 0)
(-0.00196674 0.000876576 -1.18782e-17)
(-0.00196597 0.000882666 0)
(-0.00196509 0.000880268 -1.8591e-16)
(-0.00202636 0.00078016 0)
(-0.000262029 0.00295155 -1.1959e-16)
(0.00134448 0.00073876 -3.44556e-16)
(0.00195851 0.000969364 1.25595e-16)
(-0.00201499 0.000736534 9.79704e-17)
(0.00192461 0.000758971 0)
(0.00205769 0.000952472 -1.26565e-16)
(-0.000341034 0.00293321 -1.90452e-16)
(0.0012145 0.000408655 -2.23906e-16)
(0.00195048 0.000798664 0)
(0.00200692 0.000873861 0)
(0.00193377 0.000822351 -1.87615e-16)
(-0.00202635 0.000695174 0)
(-0.0020012 0.000763699 1.96569e-16)
(-0.000493527 0.00322698 -6.17598e-18)
(-0.00212224 0.000891212 -1.0149e-16)
(-0.00186451 0.000717488 6.10872e-17)
(0.00191281 0.000740677 3.89321e-16)
(-0.0014279 0.00440929 -1.46074e-16)
(0.00327371 0.00128784 -1.97874e-16)
(0.00185828 0.000822688 -2.12583e-16)
(-0.00198944 0.000766851 9.64299e-17)
(-0.00198912 0.000920213 -1.21773e-17)
(-0.00194964 0.00088868 -1.89493e-16)
(0.00194653 0.000742073 2.09788e-16)
(-0.00199218 0.000761719 0)
(-0.00200998 0.000742377 9.90842e-17)
(-0.00228314 0.000829065 1.50956e-16)
(-0.00202017 0.000949587 0)
(-0.00199121 0.000899149 0)
(0.00207793 0.000939908 -1.23282e-16)
(0.00184995 0.000720929 0)
(-0.00200593 0.000764061 0)
(0.00187126 0.000693425 0)
(-0.00196873 0.00088223 1.18323e-17)
(-0.00198956 0.000875071 7.54731e-19)
(0.00181974 0.000621735 0)
(0.00197198 0.000752556 1.92889e-16)
(-4.6785e-05 0.00268365 0)
(0.00193489 0.000658428 0)
(-0.00201616 0.000739373 4.92535e-17)
(-0.00202921 0.000728708 -3.01482e-16)
(0.000210407 0.00120001 0)
(-0.0019965 0.000765261 -1.93417e-16)
(-0.00206233 0.00046424 9.23814e-17)
(-0.00205735 0.00081436 -4.2553e-21)
(-0.00215327 0.000734145 -2.43394e-16)
(-0.00228364 0.000813122 1.51159e-16)
(-0.00196985 0.000919185 0)
(-0.00203076 0.000704854 2.02114e-16)
(-0.00199412 0.000766153 1.00295e-16)
(0.00196096 0.000739132 0)
(-0.00197607 0.000691322 1.62545e-16)
(-0.00200057 0.000752556 -2.68738e-16)
(3.25175e-05 0.00261303 0)
(-0.00196137 0.000874718 -2.80435e-16)
(-0.00203283 0.000817575 0)
(-0.00201633 0.000751587 0)
(0.00199757 0.000743846 2.03116e-16)
(-0.0020085 0.00073507 1.01384e-16)
(0.00174564 0.000640232 2.14781e-16)
(0.00200012 0.000800494 -2.0393e-16)
(-0.00141539 0.000681237 0)
(-0.00213236 0.000718891 0)
(-0.00199724 0.000765999 0)
(0.00195652 0.000759379 -2.12708e-16)
(0.00196447 0.000826123 0)
(0.00196732 0.00075464 0)
(-0.00214039 0.000928845 -2.99361e-16)
(0.000256199 0.00265568 2.17983e-16)
(-0.0019799 0.000912383 1.92278e-16)
(0.00200985 0.000622737 -2.15587e-16)
(-1.8824e-05 0.00139765 -6.1943e-17)
(-0.00200772 0.000783066 0)
(-0.00200482 0.000845043 2.99753e-16)
(-0.00192302 0.00089543 -1.80338e-16)
(0.000183604 0.00204351 1.08286e-16)
(0.00205595 0.000445135 0)
(0.00213833 0.000574257 1.14707e-16)
(0.00188963 0.000802497 1.778e-16)
(-0.00040895 0.000311657 2.10734e-16)
(-0.00199893 0.000746542 -9.03926e-17)
(0.00197373 0.000778713 0)
(0.00122483 0.000458629 0)
(0.00167547 0.000522826 3.86488e-16)
(-0.00199947 0.000768192 0)
(0.00207348 0.000686552 -1.07229e-16)
(-0.00212881 0.000566016 1.26092e-16)
(-0.00201149 0.000765623 9.58115e-17)
(0.00190562 0.000765 -1.95166e-16)
(-0.00223296 0.000843257 -1.35978e-16)
(-0.00186306 0.000776203 1.84898e-16)
(-0.00218954 0.00100774 1.01007e-16)
(-0.00149414 0.000582114 -1.08942e-16)
(-0.00201725 0.000761771 0)
(-0.00200788 0.000763943 0)
(-0.000114102 0.00100561 0)
(-1.60791e-05 0.00260781 -2.50978e-16)
(-0.00215061 0.000766693 0)
(-0.00203121 0.000991045 -8.72298e-17)
(0.00194281 0.000760676 3.76161e-16)
(0.00186874 0.0007912 -1.11175e-16)
(0.00194432 0.00070263 3.79527e-16)
(0.00197016 0.000833491 -5.4915e-17)
(0.00195883 0.00074435 -5.54945e-21)
(-0.00199058 0.000801277 -4.91287e-17)
(-0.00199689 0.00077345 -9.63662e-17)
(-0.000162394 0.00308455 5.97384e-18)
(-0.00200334 0.000770599 -1.95295e-16)
(-0.00199052 0.000831245 -5.15028e-17)
(0.00187321 0.000811574 0)
(-0.00200688 0.000769735 -9.75864e-17)
(-0.00211195 0.000775061 -3.58917e-16)
(-0.00194196 0.000873388 -1.39394e-17)
(-0.00201815 0.000755443 0)
(-0.00203407 0.000667694 4.83494e-17)
(-0.0020071 0.000743343 -9.87662e-17)
(0.00213252 0.00093992 -2.08722e-16)
(-0.00199256 0.000788977 -9.94711e-17)
(0.000262293 0.00295163 6.96541e-18)
(0.00191304 0.000699491 2.4431e-17)
(-5.70159e-05 0.00293007 -1.98858e-16)
(-0.00222438 0.000896541 2.82348e-16)
(-0.00193988 0.000654465 -3.98527e-16)
(0.00195821 0.000755957 1.03053e-16)
(-0.00222864 0.000897113 1.25935e-16)
(0.00030062 0.00153756 8.11328e-17)
(-0.00198592 0.000786799 1.97979e-16)
(0.00190018 0.000656514 1.7667e-16)
(-2.1735e-05 0.00287581 0)
(-5.62501e-05 0.00258445 -2.83923e-16)
(-0.00199391 0.000823144 -1.57227e-16)
(0.00192667 0.000658095 -5.19582e-17)
(-2.254e-05 0.00286828 7.90264e-19)
(0.00234315 0.000930998 9.767e-17)
(-0.00184944 0.000736802 2.95295e-16)
(-0.00201298 0.000764701 -5.09881e-17)
(-0.00203608 0.000730131 0)
(-0.00209572 0.000778444 2.29029e-16)
(0.00193228 0.000780043 -2.02295e-16)
(-0.00199712 0.000775724 -9.68007e-17)
(0.0019369 0.000758795 0)
(-4.67521e-06 0.00285214 -2.0187e-16)
(-0.00209726 0.000810363 1.20768e-16)
(0.00224439 0.00201621 -3.66322e-16)
(0.00198287 0.000753717 0)
(-1.27678e-05 0.00285272 0)
(0.00203654 0.000817814 5.9567e-21)
(8.10046e-06 0.00284471 -2.02108e-16)
(4.48366e-06 0.0028502 4.01899e-16)
(-0.00199077 0.0007806 4.98489e-17)
(-0.000177096 0.00293589 1.97705e-16)
(-7.63076e-06 0.00284236 0)
(-1.84542e-05 0.0028559 2.01154e-16)
(-0.00199286 0.000776807 0)
(0.00228491 0.00129379 0)
(8.99254e-06 0.00284838 0)
(-4.46977e-06 0.0028479 -2.01437e-16)
(-0.00198552 0.000812822 0)
(-1.00293e-05 0.00285017 4.05268e-16)
(-0.00200847 0.00076013 0)
(-4.23395e-06 0.00284968 -2.02417e-16)
(-0.00199425 0.000776464 -2.93181e-16)
(-5.07576e-06 0.00284054 0)
(-0.00197449 0.000817771 9.6702e-17)
(-0.000895408 0.00326322 -4.7136e-17)
(0.00207802 0.000915932 2.50254e-16)
(0.00210377 0.000792204 0)
(5.69332e-07 0.00284627 1.45273e-20)
(-1.10899e-05 0.0028515 -1.99387e-16)
(-0.00202097 0.000678611 -8.51741e-17)
(0.00190885 0.000852845 -2.05742e-16)
(0.00175136 0.000707897 0)
(0.00194745 0.000745151 3.10261e-16)
(-2.15308e-06 0.0028484 2.01997e-16)
(-0.00198495 0.000780253 0)
(-6.99879e-05 0.0028802 2.00561e-16)
(-1.97432e-06 0.00284212 0)
(-4.94078e-06 0.00284639 -2.04878e-16)
(-0.00200169 0.000780111 0)
(0.001963 0.000819053 1.95264e-16)
(-0.00200793 0.000768016 2.68352e-21)
(7.73112e-07 0.00284132 2.02883e-16)
(0.00198997 0.000728199 -4.19346e-16)
(0.00028708 0.00171107 0)
(-1.01904e-05 0.00285124 0)
(0.00220742 0.00101939 1.46623e-16)
(0.0019328 0.000679112 0)
(-0.000224134 0.00305464 0)
(-0.00200425 0.000759011 -3.52287e-16)
(-7.6387e-05 0.00291727 0)
(-0.00199625 0.000774991 9.75563e-17)
(-0.00169353 0.00144491 -5.25369e-17)
(-0.00198701 0.00081353 2.0111e-16)
(6.97327e-07 0.00284208 -4.0462e-16)
(-0.00204253 0.000738346 5.41568e-17)
(-0.00197254 0.000817261 1.92962e-16)
(-3.51115e-06 0.00284509 0)
(-7.06292e-06 0.00284086 -1.98246e-16)
(0.00185604 0.000638007 0)
(8.79419e-07 0.00284697 -2.04204e-16)
(1.62028e-06 0.00284549 0)
(-0.000133068 0.00295839 2.01273e-16)
(1.50644e-05 0.00259387 -2.27202e-16)
(-0.00190961 0.000800546 1.17404e-16)
(-4.13132e-05 0.00288531 9.81717e-20)
(0.00141501 0.000416566 0)
(-0.0020356 0.000748083 7.99844e-17)
(-0.00191611 0.000824623 4.6885e-17)
(5.88418e-06 0.00283968 4.05009e-16)
(-1.12965e-05 0.00285012 2.01599e-16)
(-0.00204029 0.000774475 -4.65994e-16)
(1.79646e-06 0.00284313 2.02681e-16)
(0.00181662 0.000593612 6.77525e-21)
(-1.44076e-05 0.00284456 2.00599e-16)
(-0.00201313 0.000764577 0)
(-0.00198508 0.000796205 5.12175e-17)
(-1.58617e-06 0.00284558 -1.45943e-20)
(0.00193406 0.000937694 2.10079e-16)
(-0.00200417 0.000780146 -1.0284e-16)
(-0.0019757 0.000812659 -8.98987e-17)
(-7.02974e-06 0.00284909 -2.01522e-16)
(0.00194681 0.000762583 3.5159e-18)
(-5.38381e-07 0.00284675 -1.45984e-20)
(-0.00201691 0.000762502 4.8086e-17)
(9.21516e-06 0.00284173 0)
(-0.00200727 0.000759163 0)
(-1.64692e-05 0.00284906 -2.01463e-16)
(1.43094e-06 0.00284501 2.02263e-16)
(0.00194802 0.000806499 -2.45277e-17)
(-0.00204869 0.000698445 2.19718e-16)
(-1.47904e-05 0.00284494 1.99769e-16)
(3.57571e-06 0.00284146 0)
(-0.00198993 0.000806866 0)
(-0.0019803 0.00081442 1.53401e-16)
(-0.0020424 0.000655482 0)
(-0.000100996 0.00176534 -1.08308e-16)
(-5.47701e-07 0.00284648 2.02707e-16)
(-0.00197576 0.000811418 -1.45371e-16)
(-0.00199394 0.000773511 0)
(-0.001983 0.000755614 5.30122e-17)
(-2.67973e-05 0.0028549 1.97004e-16)
(1.88168e-07 0.0028424 -1.4672e-20)
(-0.00199688 0.00076388 -5.14122e-17)
(0.00115676 0.000139335 -2.18992e-16)
(-2.53163e-05 0.00286107 -2.00423e-16)
(-7.99971e-06 0.00284964 2.02102e-16)
(4.08721e-06 0.00284249 2.02979e-16)
(-2.50131e-07 0.00285125 -2.00153e-16)
(0.00237492 0.00120202 -1.92045e-16)
(-1.66725e-05 0.00284504 -2.01106e-16)
(-0.0020105 0.000756161 0)
(-0.00195042 0.000701752 0)
(0.00187451 0.000712888 0)
(-4.34087e-06 0.0028422 -2.03567e-16)
(-0.00197317 0.000817086 2.48139e-16)
(0.00192527 0.000718235 -1.57149e-16)
(-0.00191337 0.000773853 2.7135e-16)
(-0.00199683 0.000774128 -1.96914e-16)
(-0.00199967 0.000772416 -1.01261e-16)
(-0.00215481 0.00101458 -1.00453e-16)
(-7.95368e-06 0.00284448 -4.05787e-16)
(7.75276e-06 0.00284228 8.46294e-20)
(-0.00201732 0.000825823 -5.8004e-17)
(-0.00200076 0.000803687 4.59954e-17)
(-0.0020001 0.000777892 -5.05262e-17)
(1.13419e-05 0.00284575 -2.02614e-16)
(2.45423e-06 0.00284225 4.1022e-16)
(-1.37992e-05 0.00284529 -2.02958e-16)
(2.45744e-06 0.0028453 -7.95356e-19)
(-0.00199444 0.000791987 4.91289e-17)
(-9.59422e-06 0.00284376 0)
(1.35046e-05 0.00284433 -2.03781e-16)
(9.30248e-06 0.00284124 2.02747e-16)
(1.16433e-05 0.00284589 3.5054e-20)
(-0.00200311 0.000750243 1.02068e-16)
(-1.60671e-05 0.00286114 0)
(-0.00200311 0.000761797 -2.00614e-16)
(-0.00203919 0.000740234 0)
(0.00195949 0.000750705 -2.22456e-16)
(-1.06187e-06 0.00284407 -1.57902e-18)
(0.00188385 0.000748028 1.97901e-16)
(1.77717e-06 0.00284504 -1.4532e-20)
(-0.000174877 0.00291913 0)
(-0.000115981 0.00288172 -1.99268e-16)
(-0.00200268 0.000764673 0)
(-0.00201934 0.000761905 -9.86551e-17)
(1.93079e-05 0.00284088 0)
(-0.00198617 0.000770802 -2.14071e-16)
(-0.00199757 0.000783251 -1.06353e-16)
(0.00194938 0.000774536 2.13739e-16)
(1.10032e-06 0.00284208 -2.03081e-16)
(-1.60816e-05 0.00284539 -2.03157e-16)
(-0.00200665 0.00080246 5.55531e-17)
(-3.03951e-06 0.0028454 -2.00304e-16)
(-0.00197816 0.000752017 3.11583e-16)
(-1.29563e-05 0.00284321 -2.02288e-16)
(4.07595e-06 0.00284476 -1.456e-20)
(-0.00197453 0.000828436 -2.36556e-16)
(-1.75554e-05 0.00284476 2.00627e-16)
(0.00196332 0.00074286 0)
(-0.00199485 0.000780053 -5.02506e-17)
(-1.05828e-06 0.00284345 3.18887e-18)
(-0.00200635 0.000750441 1.00774e-16)
(-4.6818e-07 0.00284275 -1.60071e-18)
(-0.00199546 0.000766403 5.04599e-17)
(-0.00188192 0.000705154 0)
(7.43798e-06 0.0028447 -1.46309e-20)
(-0.00217728 0.000917232 3.00913e-16)
(1.71038e-06 0.0028462 2.04467e-16)
(0.00179822 0.000923216 -5.87769e-17)
(-0.00189496 0.000853148 1.95203e-16)
(-6.23942e-07 0.00284443 2.04613e-16)
(0.00145472 0.000570746 2.15025e-16)
(-3.71756e-06 0.00284446 2.03318e-16)
(2.16931e-06 0.00284541 3.17266e-18)
(0.00166808 0.000608792 2.2723e-16)
(0.00179005 0.000623703 -2.12539e-16)
(0.0020346 0.000809154 0)
(-0.00212045 0.000863774 0)
(-1.61769e-05 0.00284465 -1.59105e-18)
(0.00185205 0.000701185 2.79968e-16)
(-1.55908e-05 0.00284326 -1.5797e-18)
(-0.00199987 0.000773742 -9.82418e-17)
(0.00181306 0.000628947 0)
(1.47339e-05 0.00284334 -4.05549e-16)
(2.40173e-06 0.00284382 -4.08065e-16)
(-0.00198891 0.000801608 0)
(-0.00200257 0.000748913 0)
(1.64627e-06 0.00284601 -4.05515e-16)
(-5.69681e-05 0.00287316 0)
(-0.00199065 0.0008174 -1.95478e-16)
(-3.82851e-05 0.0028602 -4.0051e-16)
(-0.00181754 0.000654137 0)
(0.00204925 0.000670153 5.24842e-17)
(2.1928e-07 0.0028409 -1.60738e-18)
(6.43767e-06 0.00284694 2.04309e-16)
(0.00155619 0.000969367 -7.03672e-18)
(7.55834e-07 0.00284379 -2.0479e-16)
(-0.00201418 0.000741331 1.57436e-16)
(-0.00210358 0.000977415 1.38981e-16)
(-1.73825e-05 0.00284419 2.01866e-16)
(-0.00200676 0.0007498 1.45747e-16)
(-3.10074e-06 0.00284512 2.04811e-16)
(-1.6114e-05 0.00284361 -2.02603e-16)
(-1.82154e-05 0.00284377 -2.01906e-16)
(-0.00198117 0.000805537 0)
(-0.00200394 0.000752859 -4.98679e-17)
(-2.0105e-06 0.00284328 -7.98775e-19)
(1.66314e-05 0.00284433 0)
(-0.0019785 0.000802064 1.98687e-16)
(-0.00199465 0.000752904 0)
(2.5733e-06 0.00284256 -2.03399e-16)
(-1.3699e-05 0.00285305 3.16228e-18)
(0.00194589 0.000756218 -2.14733e-16)
(2.5513e-06 0.00284422 -4.10848e-16)
(-0.00214798 0.000850719 3.41573e-16)
(-1.03924e-06 0.002844 0)
(-9.42258e-07 0.00284585 2.02758e-16)
(-5.45107e-07 0.00284433 0)
(-1.45219e-07 0.00284508 2.02819e-16)
(2.06505e-06 0.00284357 -2.02306e-16)
(0.00168361 0.00065059 1.21376e-16)
(7.63561e-07 0.00284308 2.02448e-16)
(1.30313e-06 0.00284923 -1.46565e-20)
(-3.69058e-08 0.00284396 2.04801e-16)
(-1.88839e-05 0.00284433 4.04644e-16)
(-0.00200548 0.00076584 0)
(-0.00200309 0.000772811 -5.25272e-17)
(-1.63993e-05 0.00284398 0)
(-3.74548e-07 0.00284411 0)
(-1.89003e-06 0.00284298 -2.06611e-16)
(1.66985e-05 0.00284521 2.03097e-16)
(1.37859e-05 0.00284547 2.03862e-16)
(-0.00199942 0.000777021 2.57695e-16)
(1.48413e-05 0.00284391 2.03293e-16)
(-1.10297e-06 0.00284553 -2.04792e-16)
(-2.72729e-06 0.0028442 0)
(-7.43877e-07 0.00284398 -1.47053e-20)
(-0.00200361 0.000772171 1.00375e-16)
(1.65065e-05 0.00284425 0)
(1.55498e-05 0.00284343 2.03435e-16)
(-6.65714e-06 0.00284952 -2.05255e-16)
(-0.00200901 0.000749584 0)
(-2.87229e-08 0.00284404 0)
(0.00196434 0.000755592 -2.1323e-16)
(-3.56699e-07 0.00284592 1.59878e-18)
(-2.76725e-07 0.00284654 -3.98536e-19)
(-1.3571e-05 0.00284164 -7.92061e-19)
(-1.82406e-05 0.00284356 1.46008e-20)
(-1.47575e-05 0.00284256 7.92709e-19)
(-0.00199087 0.000856757 -1.24094e-16)
(-1.75969e-05 0.00284235 2.03609e-16)
(9.48042e-06 0.00284257 0)
(-1.72325e-05 0.0028427 2.02161e-16)
(-1.74379e-05 0.00284324 -2.02507e-16)
(-1.83797e-05 0.00284438 -2.03447e-16)
(-0.00241626 0.00197607 -3.0846e-16)
(-0.000460698 0.000571204 -3.84298e-16)
(1.6987e-05 0.00284468 -2.03712e-16)
(-1.70356e-06 0.00284516 -2.03071e-16)
(1.98392e-07 0.00284581 -2.03024e-16)
(1.52444e-05 0.00284337 2.03497e-16)
(-0.00201342 0.000759518 -2.02473e-16)
(-1.95557e-05 0.00284288 2.02139e-16)
(-1.63211e-06 0.00284451 -2.02689e-16)
(-1.29451e-05 0.00284994 -4.03164e-16)
(-1.50137e-06 0.00284357 -1.60329e-18)
(1.81409e-05 0.00284342 2.02727e-16)
(0.00194916 0.000747791 2.13264e-16)
(-6.08627e-06 0.00284534 -2.02728e-16)
(1.11677e-06 0.00284396 -1.45892e-20)
(0.00207627 0.000858143 -2.63004e-16)
(-6.09674e-07 0.00284386 0)
(-1.28956e-06 0.00284395 0)
(-1.94273e-05 0.00284352 -4.06251e-16)
(-0.00200324 0.000768839 1.00716e-16)
(3.61272e-07 0.00284231 -4.0049e-19)
(-2.25553e-05 0.00284447 2.12276e-19)
(0.00196277 0.000723422 1.41756e-17)
(-2.07386e-05 0.00284574 2.03074e-16)
(2.05381e-05 0.00284458 2.03047e-16)
(1.87867e-05 0.00284416 -2.02899e-16)
(4.73212e-06 0.00284382 -2.0347e-16)
(-2.20359e-05 0.00284473 1.45939e-20)
(-0.0020828 0.000745605 -2.15473e-16)
(-0.00172148 0.00067154 2.65477e-16)
(-1.88221e-06 0.00284126 -1.46739e-20)
(-1.22373e-06 0.00284502 -2.02588e-16)
(-0.00198517 0.00080567 5.11235e-17)
(1.80399e-06 0.00284276 -1.47055e-20)
(-2.03191e-05 0.00284266 8.05144e-19)
(2.0419e-05 0.00284353 -4.0604e-16)
(9.42232e-06 0.00284088 2.03832e-16)
(1.73646e-05 0.00284305 -2.0383e-16)
(1.70723e-05 0.00284367 -2.03825e-16)
(2.03864e-05 0.00284392 2.03124e-16)
(1.70348e-05 0.00284315 1.98678e-19)
(2.02336e-05 0.00284398 0)
(0.00196427 0.000742704 0)
(-1.6495e-05 0.00284413 2.04487e-16)
(-1.3427e-06 0.0028471 0)
(3.71813e-06 0.00284595 2.03735e-16)
(2.02774e-05 0.0028439 0)
(2.01926e-05 0.00284412 2.03192e-16)
(2.04515e-05 0.0028437 -9.91906e-20)
(2.10483e-06 0.00284619 1.99362e-16)
(1.8382e-05 0.00284509 0)
(-5.39572e-06 0.00284678 0)
(-1.71566e-05 0.00284627 -2.04707e-16)
(-0.00199941 0.000771477 -2.47765e-21)
(1.8064e-05 0.00284379 0)
(-4.18588e-05 0.00289257 0)
(1.77439e-05 0.00284383 0)
(-0.00195143 0.000744755 1.57169e-16)
(1.3917e-06 0.00284532 -2.02841e-16)
(-1.27905e-05 0.00285006 2.0468e-16)
(1.8555e-05 0.00284544 -9.94042e-20)
(-0.00196333 0.000817686 5.56764e-17)
(-0.00198796 0.000807802 -5.08318e-17)
(1.62178e-05 0.00284498 -2.03819e-16)
(-4.92281e-06 0.00283944 0)
(-6.78791e-07 0.00284879 -2.03899e-16)
(1.64563e-05 0.00284515 1.46456e-20)
(2.03847e-05 0.00284359 -2.03658e-16)
(-1.86278e-06 0.00283729 4.05039e-16)
(0.00188763 0.000657415 -3.65594e-16)
(0.00195645 0.000755531 -4.30917e-16)
(-2.88032e-06 0.0028449 4.07248e-16)
(0.00193379 0.000763549 0)
(1.60644e-05 0.00284513 0)
(2.07195e-05 0.00284311 -3.96995e-19)
(-0.00203283 0.000804188 -1.84022e-16)
(-0.00199589 0.000815183 1.05905e-16)
(1.26248e-06 0.00284287 -1.00203e-19)
(1.62195e-05 0.00284536 2.0387e-16)
(1.72023e-06 0.00284398 -2.03129e-16)
(-0.00182516 0.00174321 1.02776e-16)
(1.53639e-05 0.00284505 7.96842e-19)
(-1.98768e-05 0.00284566 2.03301e-16)
(-1.64652e-06 0.00284778 2.04071e-16)
(-0.0022784 0.00116602 -2.01499e-16)
(1.58676e-05 0.00284592 0)
(-1.1613e-06 0.00284431 4.01572e-19)
(-4.38202e-06 0.00284691 -2.03104e-16)
(-0.00200408 0.000759864 0)
(0.00200901 0.000548885 3.85784e-16)
(-0.00197198 0.000816598 5.36678e-17)
(1.51828e-05 0.00284532 -7.96974e-19)
(2.13975e-06 0.00284492 -2.03828e-16)
(-1.76891e-05 0.00284231 -2.03656e-16)
(-0.00199546 0.000801057 3.04095e-16)
(1.52251e-05 0.00284628 -2.04088e-16)
(-2.31817e-05 0.00284339 7.93016e-19)
(1.21522e-06 0.00284281 2.0059e-19)
(1.88938e-05 0.00284348 0)
(-5.22947e-07 0.00284838 0)
(1.91509e-05 0.00284328 0)
(2.00845e-06 0.00284486 0)
(-0.0019988 0.000759491 -5.05805e-17)
(-2.08537e-05 0.00284238 0)
(-1.39009e-06 0.00284415 0)
(0.00211395 0.000982736 1.57509e-16)
(1.28621e-06 0.00284497 0)
(-0.00011453 0.00296196 0)
(-5.54009e-07 0.00284823 4.08008e-16)
(1.02358e-06 0.00284284 0)
(0.00194541 0.000716892 -4.81145e-17)
(0.00195802 0.000760213 0)
(0.00177366 0.000856904 1.05924e-16)
(0.00192234 0.000697033 -2.06198e-16)
(2.22272e-06 0.00284428 -4.07222e-16)
(-0.0018133 0.000782972 0)
(8.9637e-07 0.00284502 -1.9918e-19)
(-0.00198525 0.000802535 -9.9158e-17)
(2.12487e-05 0.00284364 0)
(0.000971908 0.00111123 0)
(3.57491e-07 0.00284424 -4.0203e-19)
(1.83879e-06 0.00285125 -1.26934e-17)
(0.000730823 0.00175167 -7.05264e-18)
(1.89053e-05 0.00284194 0)
(2.27856e-06 0.00284413 0)
(-0.00199415 0.000783723 0)
(-9.35287e-07 0.00284497 4.06408e-16)
(-8.28996e-07 0.00284568 0)
(0.00195376 0.000749597 3.89296e-21)
(0.000554311 0.00164049 0)
(-9.66778e-08 0.00284444 4.14443e-19)
(-2.38152e-07 0.00284581 -2.04145e-16)
(1.43599e-06 0.00284378 -2.03125e-16)
(1.18316e-06 0.00284302 -4.02704e-19)
(5.25099e-07 0.00284334 0)
(1.09325e-06 0.00284681 1.47216e-20)
(0.00199717 0.000712831 0)