/*--------------------------------*- C++ -*----------------------------------*\
  =========                 |
  \\      /  F ield         | OpenFOAM: The Open Source CFD Toolbox
   \\    /   O peration     | Website:  https://openfoam.org
    \\  /    A nd           | Version:  12
     \\/     M anipulation  |
\*---------------------------------------------------------------------------*/
FoamFile
{
    format      ascii;
    class       volVectorField;
    location    "0.08";
    object      U;
}
// * * * * * * * * * * * * * * * * * * * * * * * * * * * * * * * * * * * * * //

dimensions      [0 1 -1 0 0 0 0];

internalField   nonuniform List<vector> 
4428
(
(0.000608649 0.000231291 1.01429e-16)
(-0.000615869 0.000255168 -9.03832e-17)
(-0.000562471 0.000258374 0)
(-0.000580455 0.000246898 0)
(0.000556917 0.000466494 8.16398e-17)
(0.000589795 0.00048375 3.28944e-21)
(-0.000556752 0.000328374 0)
(-0.000621802 0.000220968 1.46411e-16)
(0.000604971 0.000252128 -2.49067e-16)
(0.000627431 0.000178486 9.95382e-17)
(-0.000574766 0.000196799 -1.73331e-16)
(0.000566289 0.000250676 -1.76863e-16)
(-0.000644891 0.000129322 -2.0366e-16)
(-0.000194687 0.000713354 -9.58161e-17)
(0.000599706 0.000232083 0)
(0.000552401 0.000199416 0)
(0.000628229 0.000227951 0)
(-0.00057487 0.000196624 0)
(-0.000647961 0.000128276 0)
(0.000608312 0.000229561 0)
(0.000214344 0.00017656 -4.48036e-16)
(-0.000614025 0.000234675 -1.77702e-16)
(-0.000577909 0.000250322 0)
(-0.000639128 0.000210596 0)
(-0.000610982 0.000233468 2.26618e-17)
(-0.000579105 0.000209364 0)
(-0.000587586 0.000318395 1.03357e-16)
(0.000595081 0.000183238 2.07804e-16)
(0.000559343 0.000276935 0)
(-0.000655785 0.000142242 0)
(0.000611812 0.00013709 0)
(-0.000620765 0.000232324 -1.84204e-16)
(0.000618201 0.00019719 -9.00197e-17)
(-0.000637044 0.000314194 -2.77424e-16)
(-1.39354e-05 0.000833771 4.69774e-17)
(-0.000618007 0.000242658 1.99863e-16)
(-0.000611022 0.000313221 -4.4111e-21)
(0.000562691 0.000758511 1.27044e-17)
(-7.96369e-05 0.000723362 -2.62235e-17)
(-0.000581565 0.0002574 0)
(0.000617691 0.000222053 0)
(0.000546885 0.000169102 0)
(0.000580067 0.000195917 9.2432e-17)
(-0.000635851 0.000200436 1.66058e-16)
(0.000606791 0.000182412 0)
(0.000492398 0.000186827 0)
(0.000575557 0.000557943 -9.97843e-17)
(-0.00057697 0.000286281 2.03144e-16)
(-0.000590511 0.000255587 2.24461e-16)
(-0.000608102 0.000270442 0)
(0.000609873 0.000259931 0)
(0.000535329 0.00027014 1.88123e-16)
(0.000628247 0.000181733 -9.13188e-17)
(0.000543001 0.000278485 0)
(0.000560539 0.000242527 -1.39784e-17)
(0.000375346 0.000172935 0)
(0.000550985 0.000266268 -9.29932e-17)
(-0.000585538 0.000184168 0)
(0.000507031 0.000545435 1.82961e-16)
(0.00059792 0.000200262 -1.82011e-16)
(0.000626713 0.000240785 1.67097e-16)
(-0.000629717 0.000198682 0)
(0.000543675 0.000213248 2.79953e-16)
(-0.000619722 0.000231568 9.26985e-17)
(-0.000616684 0.000243214 0)
(0.000568211 0.000249293 0)
(-0.000631617 0.0002033 1.73158e-16)
(-0.000584468 0.000251384 -1.85821e-16)
(0.000589046 0.000207716 -1.82186e-16)
(-0.000607121 0.000263346 -3.6191e-16)
(-0.000634139 0.000194341 -9.16135e-17)
(0.000591415 0.000271631 2.12654e-16)
(0.00065008 0.000290498 5.80508e-17)
(-0.000572257 0.000241391 4.46955e-17)
(0.000605279 0.000213491 1.9665e-16)
(-1.07144e-05 0.000818247 -1.83296e-16)
(0.000630081 0.000291002 0)
(0.000648512 0.00026088 0)
(-0.00056479 0.000331309 -1.18145e-16)
(0.000430599 0.000198805 -4.26022e-21)
(0.000552368 0.000285131 -1.97539e-16)
(-0.000627627 0.000196383 0)
(0.000576845 0.000280336 -1.81064e-16)
(0.000589471 0.000251287 -1.72066e-16)
(0.000626263 0.000225888 3.18306e-16)
(-0.000680601 0.000202851 -2.54691e-16)
(-8.46027e-05 0.000932807 1.15144e-16)
(-0.000627312 0.000230141 0)
(-0.000618037 0.00023455 -9.60344e-17)
(0.000563938 0.00024804 2.04742e-17)
(0.000606693 0.000178938 8.36652e-17)
(0.000621393 0.000222548 -1.59369e-16)
(-0.000628086 0.000249644 0)
(-0.000631336 0.000236271 0)
(-0.000617266 0.000243731 9.81697e-17)
(-0.000597101 0.000254412 1.6712e-16)
(0.000623259 0.00024573 1.13531e-16)
(-0.000639284 0.000243521 -1.19903e-16)
(-0.00063502 0.000192178 9.28709e-17)
(0.000573851 0.000319346 0)
(0.000572397 0.000264654 -2.25142e-17)
(0.000591915 0.000233383 0)
(0.00060735 0.000212639 0)
(0.000548497 0.000208002 -1.87987e-16)
(0.000547357 0.000262535 -1.03702e-16)
(0.000556992 0.000267684 2.47717e-21)
(0.00059759 0.000246042 1.90327e-16)
(-0.000612851 0.000297809 -1.22456e-16)
(0.000628933 0.000243744 -1.20823e-16)
(0.000575002 0.000293748 0)
(0.000595334 0.000194279 1.64696e-16)
(0.000596795 0.000228653 -1.94805e-16)
(-0.000573472 0.000237985 2.63539e-21)
(0.000565078 0.000215599 1.65965e-16)
(-0.000349351 0.000218844 1.15542e-16)
(-0.000634792 0.000189789 1.80234e-16)
(-0.000135886 0.000798566 0)
(0.000247628 0.000194216 5.24748e-17)
(-0.000640921 0.000208595 8.87655e-17)
(0.000645058 0.000255774 -1.12861e-16)
(0.000648516 0.000250883 2.11533e-16)
(-0.00056527 0.000334077 2.41279e-16)
(0.00041277 0.000675525 -1.96897e-16)
(0.000613643 0.000200016 -3.0362e-16)
(7.20336e-06 0.00083424 1.7876e-16)
(-0.000620493 0.000231806 0)
(-0.000629617 0.000207372 -2.72259e-16)
(0.000571977 0.00024418 9.95093e-17)
(-0.000616836 0.000252471 -3.04102e-16)
(-0.000619277 0.000241755 9.66772e-17)
(-0.00063394 0.000196177 -1.87134e-16)
(-0.000606132 0.00025093 0)
(0.000615795 0.000246806 2.24128e-16)
(0.000585039 0.00022354 0)
(0.000594225 0.000231402 0)
(0.000635393 0.000274307 6.53776e-21)
(0.000639292 0.000267447 -2.43672e-16)
(-0.000633688 0.000192413 -1.82389e-16)
(-0.00062053 0.000237647 -1.83552e-16)
(-0.000613991 0.000248894 1.43949e-16)
(-0.00061559 0.000301405 -1.23707e-16)
(-0.000620242 0.000224227 -9.67489e-17)
(0.000585228 0.000235643 0)
(0.000589812 0.000237611 -1.9943e-16)
(0.000615542 0.000229626 0)
(0.000582939 0.000224735 9.6765e-17)
(0.000632231 0.000292697 1.28475e-16)
(-1.44207e-05 0.0005908 -9.13952e-17)
(0.000655731 0.000169839 2.8889e-16)
(-9.59667e-06 0.000831675 4.54411e-17)
(-0.000620051 0.000232051 -1.99514e-16)
(-0.000401265 0.00018203 1.00284e-16)
(0.000588046 0.000182272 -9.64808e-21)
(0.000657191 0.000223017 -2.48625e-16)
(-0.000618838 0.000241525 2.91596e-16)
(0.000626876 0.000232249 0)
(0.000573604 0.000383951 -1.77128e-16)
(0.000610722 0.000178655 -9.48488e-17)
(0.000608848 0.000214228 -1.78768e-16)
(-0.000625671 0.000199919 -9.12349e-17)
(-0.00061585 0.000256584 1.95449e-16)
(0.000598891 0.000237546 0)
(0.000650371 0.000197423 0)
(-0.00021685 9.70756e-05 -2.17178e-16)
(-0.000650814 0.000279336 1.19565e-16)
(-0.000634406 0.000194703 0)
(-0.000617498 0.000226133 0)
(0.000649502 0.000203589 0)
(-0.000617928 0.000236881 1.93883e-21)
(-0.000620049 0.000268432 9.36793e-17)
(-0.000631722 0.000204052 -9.38004e-17)
(0.000618082 0.000246605 4.00286e-21)
(-0.000621427 0.000232878 0)
(0.000554242 0.000236153 0)
(0.000569597 0.00074106 -1.16376e-17)
(-0.000656741 0.000282206 2.2908e-16)
(0.000624228 0.000223343 0)
(0.000540219 0.000281146 2.14592e-16)
(0.000587034 0.000254175 2.17942e-16)
(-0.000655865 0.000277933 1.1432e-16)
(-8.78511e-05 0.000832232 -6.98914e-21)
(-0.000598736 0.000249087 1.7508e-16)
(-0.000624147 0.000218272 1.91953e-16)
(0.000574911 0.000217718 0)
(-0.000619573 0.000232402 3.00574e-16)
(-0.000612292 0.000289661 -9.52179e-17)
(0.000612528 0.000238296 0)
(-0.000617901 0.000240918 0)
(0.000530849 0.000221884 3.43574e-16)
(0.000612951 0.000274713 0)
(0.000600099 0.000218041 0)
(0.000625387 0.000307951 2.58472e-17)
(0.000608891 0.000214223 0)
(0.000610945 0.00026618 -3.67876e-16)
(-0.000597029 0.000289282 0)
(-0.000595849 0.000286984 -1.80869e-16)
(-0.000595307 0.000286174 2.70927e-16)
(-0.000589808 0.000280719 8.88783e-17)
(0.000842333 0.000488155 1.4876e-16)
(-0.000194628 0.00088111 0)
(0.000610465 0.000277623 2.13766e-16)
(-0.000623738 0.000225757 -1.94082e-16)
(0.000489217 0.000261011 -1.9031e-16)
(-0.000628069 0.000200936 0)
(0.000554945 0.000218491 -1.76633e-16)
(0.000603758 0.000212008 -2.98061e-18)
(-0.000616681 0.000237893 9.32591e-17)
(-0.000137332 0.000957481 -1.7791e-16)
(-0.000310785 0.000829663 1.11842e-17)
(0.000409358 0.000213656 0)
(0.000619668 0.000268587 0)
(0.000680635 0.000234472 0)
(0.000614615 0.000258236 5.93334e-21)
(-0.000622716 0.0002188 0)
(0.000602555 0.000224137 0)
(-0.000602629 0.000283203 -1.4009e-16)
(-0.000596947 0.000279519 1.83786e-16)
(2.27312e-05 0.00083234 -1.84695e-16)
(-0.000584026 0.000229226 1.99301e-16)
(-0.000593214 0.000284732 -4.53598e-17)
(0.000613527 0.00025636 1.95366e-16)
(0.000657265 0.000226137 -6.15125e-17)
(-0.000613894 0.000239518 1.85472e-16)
(0.000637912 0.000282013 0)
(-0.000597392 0.000285818 0)
(-0.00061918 0.000232954 0)
(-0.00062297 0.000239262 -1.08728e-16)
(0.000599442 0.000214968 -1.93045e-16)
(0.000571342 0.000242047 3.79121e-21)
(-0.000617336 0.000240634 0)
(-0.000619461 0.000225216 9.83252e-17)
(-0.00038238 0.000759407 0)
(0.000522957 0.000331039 0)
(9.82449e-05 0.000923639 8.61761e-17)
(0.000581383 0.000238396 5.74633e-17)
(-0.000602061 0.000275983 0)
(-0.000599621 0.000281572 0)
(-0.000599905 0.000279395 1.88219e-16)
(-0.000601822 0.000277935 -1.86176e-16)
(-0.000626832 0.00020483 2.97772e-16)
(-6.17048e-05 0.000162611 5.1389e-17)
(-0.000645621 0.00025258 -5.90072e-17)
(-0.000587844 0.000281392 6.2371e-17)
(0.000600293 0.000239504 2.23738e-17)
(-0.000621627 0.000220746 -9.62594e-17)
(-0.000169241 0.000626376 -1.01157e-16)
(-0.000614195 0.000294774 1.89328e-16)
(-0.000623651 0.000222739 1.92818e-16)
(0.000715387 0.000477534 0)
(-6.93311e-05 0.000624307 0)
(-0.000648006 0.000266434 6.06982e-21)
(0.00058793 0.000233768 2.04398e-16)
(0.000614403 0.000258684 -1.05651e-16)
(-0.00059757 0.000279045 1.8189e-16)
(0.000530311 0.000196323 -1.31319e-16)
(0.00010829 7.21554e-05 1.07918e-16)
(-0.000599546 0.000279613 -3.65592e-16)
(4.37759e-06 0.000826563 0)
(-0.000709335 0.000249224 -3.66795e-17)
(-0.000604523 0.000276852 -2.11765e-16)
(-0.000602788 0.000277711 1.90022e-16)
(-0.000215099 0.000107792 2.17219e-16)
(-0.000619001 0.000226649 0)
(0.000661859 0.000134254 1.23015e-16)
(-0.000599565 0.000277445 -9.37859e-17)
(-0.000615132 0.000238543 -1.00074e-16)
(0.00062951 0.000227749 0)
(-0.000600238 0.000278659 0)
(-0.000417977 0.000912061 1.37279e-16)
(-0.000638012 0.000216029 -1.83739e-16)
(0.000602096 0.000207201 0)
(0.000626678 0.000295128 2.37183e-16)
(0.000599377 0.000239008 1.23126e-17)
(-0.000121376 0.000672509 2.58445e-16)
(-0.000619504 0.000234179 0)
(0.000585538 0.000249947 1.98134e-16)
(0.000606755 0.000228789 -2.63565e-16)
(-0.000620282 0.000224366 1.94299e-16)
(0.000647159 0.000313211 0)
(0.000103825 6.94904e-05 -1.10466e-16)
(-0.000680506 0.000283973 -2.54994e-22)
(-0.000105114 0.000847173 9.63421e-17)
(0.000601306 0.000227656 0)
(-0.000625503 0.000208048 -2.9918e-16)
(0.000558842 0.000316484 3.93351e-16)
(0.000547898 0.000315995 -9.12453e-17)
(0.000606997 0.000238461 -1.32952e-17)
(0.000609828 0.000207485 -1.26249e-16)
(0.000610351 0.000241791 1.9444e-16)
(0.000611312 0.000226472 0)
(-0.000680016 0.000201108 1.43581e-16)
(-0.000641618 0.000209565 -1.87094e-16)
(-0.000605564 0.000271539 -7.47206e-19)
(0.000574933 0.000280775 0)
(0.00056491 0.000250791 2.14674e-16)
(0.000196287 6.72081e-05 2.31987e-16)
(-0.000615476 0.000229349 1.95536e-16)
(-0.000598368 0.000276798 2.07965e-16)
(-0.000613178 0.000280634 0)
(-0.00037784 0.000889639 1.96766e-16)
(-0.00062193 0.000225784 5.90508e-21)
(0.00057565 0.000218488 1.14696e-16)
(-0.000618433 0.000227713 0)
(-0.000602907 0.000276469 -1.18784e-17)
(-0.000602136 0.00027836 0)
(-0.000601404 0.000278321 -1.85914e-16)
(-0.000619058 0.000241938 0)
(-8.84259e-05 0.000921368 -1.19594e-16)
(0.000401155 0.000228861 -3.44562e-16)
(0.000593721 0.000310194 1.25599e-16)
(-0.000619926 0.000226312 9.79723e-17)
(0.000592152 0.000234347 0)
(0.000633081 0.000304122 -1.26568e-16)
(-0.000104127 0.000902017 -1.90457e-16)
(0.000371343 0.000124895 -2.23908e-16)
(0.000599967 0.000246219 0)
(0.00061135 0.000272715 0)
(0.000596208 0.000253476 -1.87618e-16)
(-0.000624263 0.000211665 0)
(-0.000615619 0.000235062 1.96573e-16)
(-0.00015358 0.000993756 -6.17615e-18)
(-0.000653162 0.00028689 -1.01493e-16)
(-0.00057029 0.000219393 6.10887e-17)
(0.000589751 0.000228614 3.89328e-16)
(-0.000438358 0.00134932 -1.46081e-16)
(0.00100845 0.000397638 -1.9788e-16)
(0.0005721 0.000267207 -2.12588e-16)
(-0.000611409 0.000238025 9.64318e-17)
(-0.000612451 0.000286885 -1.21775e-17)
(-0.000597523 0.000280784 -1.89497e-16)
(0.000598196 0.000228398 2.09792e-16)
(-0.00061621 0.000229814 0)
(-0.000618427 0.000228243 9.90862e-17)
(-0.000708908 0.000247261 1.50962e-16)
(-0.000620338 0.000296223 0)
(-0.000610882 0.000281853 0)
(0.000629119 0.000296907 -1.23285e-16)
(0.00056828 0.000217451 0)
(-0.000619238 0.000232568 0)
(0.00057774 0.000219579 0)
(-0.000602158 0.000277032 1.18325e-17)
(-0.000609636 0.000273392 7.54747e-19)
(0.000560671 0.000180999 0)
(0.000604917 0.000224487 1.92893e-16)
(-4.33172e-06 0.000832939 0)
(0.000606682 0.000196518 0)
(-0.000621003 0.000228369 4.92545e-17)
(-0.000624099 0.000222588 -3.01488e-16)
(5.99964e-05 0.000366103 0)
(-0.000613766 0.000236977 -1.93421e-16)
(-0.000648968 0.000142986 9.23833e-17)
(-0.000657738 0.000253051 -4.41888e-21)
(-0.000658137 0.000220054 -2.434e-16)
(-0.000709534 0.000242032 1.51164e-16)
(-0.000604268 0.000288497 0)
(-0.000624956 0.000215541 2.02118e-16)
(-0.000613483 0.000235706 1.00297e-16)
(0.000603607 0.000228406 0)
(-0.000607971 0.000207846 1.62548e-16)
(-0.000616723 0.000229151 -2.68743e-16)
(-4.95693e-06 0.00080681 0)
(-0.000599044 0.000274876 -2.80441e-16)
(-0.00061739 0.00025855 0)
(-0.00062046 0.000230731 0)
(0.000613461 0.000224221 2.03121e-16)
(-0.000618514 0.00022636 1.01386e-16)
(0.000539352 0.000192809 2.14785e-16)
(0.000610115 0.000246853 -2.03935e-16)
(-0.000433343 0.000211746 0)
(-0.000655099 0.000219742 0)
(-0.000614237 0.000236967 0)
(0.00060094 0.00023404 -2.12712e-16)
(0.000616834 0.000270567 0)
(0.000607739 0.000229532 0)
(-0.000658326 0.000285461 -2.99368e-16)
(9.90157e-05 0.000810024 2.1799e-16)
(-0.000606616 0.000284846 1.92282e-16)
(0.000633843 0.000193947 -2.15592e-16)
(-1.26991e-05 0.000430125 -6.19438e-17)
(-0.000617639 0.000240931 0)
(-0.000615043 0.000262347 2.9976e-16)
(-0.000588876 0.000280896 -1.80342e-16)
(6.82545e-05 0.000632077 1.08289e-16)
(0.000647487 0.000125355 0)
(0.000665496 0.000168287 1.14709e-16)
(0.000580362 0.000248149 1.77804e-16)
(-0.000122737 9.30317e-05 2.10735e-16)
(-0.000616657 0.000227552 -9.03945e-17)
(0.000606505 0.000240541 0)
(0.000376622 0.000142341 0)
(0.000523374 0.000158354 3.86495e-16)
(-0.000614992 0.000237317 0)
(0.000637494 0.000201138 -1.07231e-16)
(-0.000662787 0.0001698 1.26096e-16)
(-0.000619703 0.00023613 9.58134e-17)
(0.000586628 0.000234783 -1.9517e-16)
(-0.000706469 0.000264324 -1.35983e-16)
(-0.000589108 0.00024932 1.84902e-16)
(-0.000673565 0.000310081 1.0101e-16)
(-0.000460319 0.000182708 -1.08944e-16)
(-0.000620573 0.0002343 0)
(-0.000618181 0.000235022 0)
(-4.53415e-05 0.000310208 0)
(9.0214e-06 0.000804735 -2.50985e-16)
(-0.000655643 0.000227544 0)
(-0.000622139 0.000307663 -8.72317e-17)
(0.000599843 0.00022903 3.76169e-16)
(0.000575093 0.000244069 -1.11177e-16)
(0.000600747 0.00021122 3.79534e-16)
(0.000607619 0.000251449 -5.49163e-17)
(0.000602732 0.000228713 -5.5481e-21)
(-0.000612308 0.0002472 -4.91297e-17)
(-0.000613925 0.000240021 -9.63682e-17)
(-5.04221e-05 0.000948844 5.97401e-18)
(-0.00061611 0.000237808 -1.95299e-16)
(-0.000612002 0.000256388 -5.15038e-17)
(0.000573149 0.000249299 0)
(-0.00061804 0.000237655 -9.75883e-17)
(-0.000666241 0.000250274 -3.58928e-16)
(-0.000604572 0.000271474 -1.39396e-17)
(-0.000620696 0.000231854 0)
(-0.00062643 0.000200935 4.83503e-17)
(-0.000617666 0.000228673 -9.87682e-17)
(0.000653869 0.000288293 -2.08726e-16)
(-0.000612811 0.000243346 -9.9473e-17)
(8.9184e-05 0.000922147 6.96564e-18)
(0.00058746 0.000212782 2.44315e-17)
(-1.75039e-05 0.000901597 -1.98863e-16)
(-0.000683286 0.00028927 2.82357e-16)
(-0.000596355 0.000200366 -3.98535e-16)
(0.000601635 0.000232099 1.03055e-16)
(-0.000683953 0.00028958 1.25938e-16)
(8.90081e-05 0.000468293 8.11339e-17)
(-0.00061138 0.000242369 1.97983e-16)
(0.000585397 0.000198933 1.76673e-16)
(-6.73656e-06 0.000884668 0)
(-1.49213e-05 0.000775721 -2.8393e-16)
(-0.000613364 0.000253825 -1.5723e-16)
(0.000594679 0.000202642 -5.19591e-17)
(-6.96546e-06 0.000882306 7.90285e-19)
(0.000721951 0.000287417 9.76722e-17)
(-0.000567122 0.00022803 2.95302e-16)
(-0.000619608 0.00023541 -5.09892e-17)
(-0.000628133 0.000219303 0)
(-0.000640303 0.00023238 2.29035e-16)
(0.000594437 0.000240663 -2.02299e-16)
(-0.000614142 0.000240456 -9.68026e-17)
(0.000591677 0.00023531 0)
(-1.4087e-06 0.000877583 -2.01876e-16)
(-0.000665178 0.000252498 1.20771e-16)
(0.000691219 0.000619342 -3.66333e-16)
(0.000610089 0.000232555 0)
(-3.90949e-06 0.000877677 0)
(0.000626062 0.000250934 5.94187e-21)
(2.62767e-06 0.000875073 -2.02114e-16)
(1.38896e-06 0.000877503 4.01909e-16)
(-0.000612277 0.000240433 4.98499e-17)
(-5.48672e-05 0.000904136 1.97711e-16)
(-2.32478e-06 0.000874464 0)
(-5.6446e-06 0.000878585 2.01159e-16)
(-0.000612788 0.000238943 0)
(0.000708667 0.000390061 0)
(2.89851e-06 0.000876304 0)
(-1.35879e-06 0.000876224 -2.01442e-16)
(-0.000611228 0.000251208 0)
(-3.15229e-06 0.000876823 4.05279e-16)
(-0.000618508 0.000234456 0)
(-1.28405e-06 0.000876771 -2.02422e-16)
(-0.000613467 0.00023912 -2.93187e-16)
(-1.53714e-06 0.000873878 0)
(-0.000607532 0.000252189 9.67039e-17)
(-0.000277918 0.0010021 -4.71376e-17)
(0.000645761 0.000294057 2.50261e-16)
(0.000666615 0.000249556 0)
(1.75909e-07 0.000876166 1.45304e-20)
(-3.43965e-06 0.000877429 -1.99392e-16)
(-0.000625515 0.000202973 -8.5176e-17)
(0.000586156 0.000263425 -2.05746e-16)
(0.000522465 0.000213264 0)
(0.000598431 0.000230395 3.10267e-16)
(-6.41253e-07 0.000876349 2.02002e-16)
(-0.000611584 0.000239769 0)
(-2.15953e-05 0.000886071 2.00566e-16)
(-6.42077e-07 0.000874303 0)
(-1.49568e-06 0.000875675 -2.04883e-16)
(-0.00061564 0.000239948 0)
(0.000603362 0.000264393 1.95269e-16)
(-0.000617723 0.00023632 2.68247e-21)
(2.06346e-07 0.00087404 2.02888e-16)
(0.000611264 0.000224312 -4.19355e-16)
(9.44003e-05 0.000513973 0)
(-3.16955e-06 0.000877345 0)
(0.000679189 0.000314007 1.46626e-16)
(0.000603954 0.000209219 0)
(-6.84348e-05 0.000940456 0)
(-0.000617826 0.000233683 -3.52294e-16)
(-2.35766e-05 0.000897697 0)
(-0.000614012 0.000239927 9.75583e-17)
(-0.000520544 0.000444837 -5.25382e-17)
(-0.000611167 0.000251366 2.01114e-16)
(2.14864e-07 0.000874802 -4.0463e-16)
(-0.000626947 0.000231739 5.41579e-17)
(-0.000607299 0.000252305 1.92966e-16)
(-1.07548e-06 0.000875292 0)
(-2.11749e-06 0.000873953 -1.98252e-16)
(0.00056356 0.000188627 0)
(2.86412e-07 0.000875878 -2.04209e-16)
(5.718e-07 0.00087497 0)
(-4.11619e-05 0.000909883 2.01278e-16)
(-8.27857e-07 0.000779823 -2.27207e-16)
(-0.000606857 0.000266145 1.17408e-16)
(-1.26627e-05 0.000887626 9.81743e-20)
(0.000435511 0.000127903 0)
(-0.000635451 0.000231515 7.9986e-17)
(-0.000601371 0.000255195 4.68858e-17)
(1.87739e-06 0.000873581 4.0502e-16)
(-3.47578e-06 0.000876881 2.01604e-16)
(-0.000626412 0.000242715 -4.66004e-16)
(5.53734e-07 0.000875124 2.02686e-16)
(0.000549843 0.000170927 6.62255e-21)
(-4.52067e-06 0.000875229 2.00604e-16)
(-0.000620111 0.000235643 0)
(-0.000610263 0.000245466 5.12185e-17)
(-4.55552e-07 0.000875445 -1.45967e-20)
(0.000596439 0.000301095 2.10084e-16)
(-0.000616325 0.000240885 -1.02842e-16)
(-0.000607932 0.00025122 -8.99005e-17)
(-2.18735e-06 0.000876428 -2.01527e-16)
(0.000598557 0.000234941 3.51599e-18)
(-8.501e-08 0.000875798 -1.46006e-20)
(-0.000622496 0.000234905 4.80869e-17)
(2.81438e-06 0.00087422 0)
(-0.00061812 0.000233391 0)
(-5.11482e-06 0.000876465 -2.01469e-16)
(4.43683e-07 0.000875753 2.02268e-16)
(0.000596058 0.000248818 -2.45282e-17)
(-0.000629231 0.00021716 2.19722e-16)
(-4.66559e-06 0.000875366 1.99774e-16)
(1.08199e-06 0.000874061 0)
(-0.000612324 0.000248962 0)
(-0.000609744 0.000251008 1.53404e-16)
(-0.000630571 0.000198604 0)
(-3.28623e-05 0.000538836 -1.0831e-16)
(-1.61915e-07 0.00087573 2.02712e-16)
(-0.000608273 0.000250219 -1.45373e-16)
(-0.00061266 0.00024145 0)
(-0.000610168 0.000232055 5.30132e-17)
(-8.15259e-06 0.000878305 1.97009e-16)
(3.84356e-08 0.000874423 -1.46738e-20)
(-0.000614714 0.000234924 -5.14132e-17)
(0.000356217 4.29161e-05 -2.18994e-16)
(-7.81584e-06 0.000880271 -2.00428e-16)
(-2.55487e-06 0.00087673 2.02107e-16)
(1.19625e-06 0.000874577 2.02984e-16)
(-1.54096e-07 0.000877527 -2.00158e-16)
(0.000730556 0.000371397 -1.9205e-16)
(-5.27786e-06 0.000875356 -2.01111e-16)
(-0.000619189 0.00023391 0)
(-0.000612757 0.000233947 0)
(0.000590042 0.000232815 0)
(-1.35515e-06 0.000874341 -2.03573e-16)
(-0.000607406 0.00025187 2.48144e-16)
(0.00059576 0.00022077 -1.57152e-16)
(-0.000585434 0.000237821 2.71356e-16)
(-0.000614012 0.000239217 -1.96918e-16)
(-0.000614929 0.0002378 -1.01263e-16)
(-0.000663313 0.000312166 -1.00455e-16)
(-2.663e-06 0.000874699 -4.05798e-16)
(2.39252e-06 0.000874462 8.46291e-20)
(-0.00061377 0.000255647 -5.80053e-17)
(-0.00061532 0.000246241 4.59963e-17)
(-0.000615186 0.000238794 -5.05272e-17)
(3.54311e-06 0.000875535 -2.02619e-16)
(7.06604e-07 0.000874449 4.10231e-16)
(-4.3346e-06 0.000875382 -2.02964e-16)
(7.37701e-07 0.000875364 -7.95377e-19)
(-0.000613989 0.00024286 4.91299e-17)
(-3.07248e-06 0.000874777 0)
(4.20773e-06 0.000875088 -2.03787e-16)
(2.81086e-06 0.000874149 2.02753e-16)
(3.63954e-06 0.000875591 3.50525e-20)
(-0.000615112 0.000233917 1.0207e-16)
(-4.90316e-06 0.000880209 0)
(-0.000616471 0.000234433 -2.00618e-16)
(-0.000637498 0.000229462 0)
(0.000602937 0.000230462 -2.22461e-16)
(-3.81358e-07 0.000874961 -1.57907e-18)
(0.000572907 0.000232952 1.97905e-16)
(5.57766e-07 0.000874879 -1.45351e-20)
(-5.2955e-05 0.000897985 0)
(-3.57264e-05 0.000886744 -1.99274e-16)
(-0.000616803 0.000235135 0)
(-0.000621311 0.000234433 -9.8657e-17)
(6.0448e-06 0.000874375 0)
(-0.000611766 0.000236775 -2.14075e-16)
(-0.000614586 0.000240533 -1.06355e-16)
(0.000599804 0.000239349 2.13743e-16)
(3.39314e-07 0.000874796 -2.03086e-16)
(-5.06271e-06 0.000875405 -2.03162e-16)
(-0.00061758 0.000242943 5.55542e-17)
(-9.83378e-07 0.000874939 -2.00309e-16)
(-0.000609161 0.000231458 3.11589e-16)
(-4.14547e-06 0.000874604 -2.02293e-16)
(1.23901e-06 0.000875106 -1.45602e-20)
(-0.000618755 0.000272594 -2.36562e-16)
(-5.56624e-06 0.000875259 2.00632e-16)
(0.000603971 0.000228076 0)
(-0.000613674 0.000240156 -5.02516e-17)
(-2.95952e-07 0.000874781 3.18896e-18)
(-0.000618431 0.000231485 1.00776e-16)
(-1.55441e-07 0.000874491 -1.60075e-18)
(-0.00061395 0.000235665 5.04609e-17)
(-0.000584744 0.000214159 0)
(2.32896e-06 0.000875187 -1.46338e-20)
(-0.000669408 0.000282703 3.0092e-16)
(5.36966e-07 0.000875593 2.04473e-16)
(0.000564578 0.000278851 -5.8778e-17)
(-0.000600292 0.000260278 1.95207e-16)
(-1.85501e-07 0.00087502 2.04618e-16)
(0.000446969 0.000177309 2.15028e-16)
(-1.13868e-06 0.000875084 2.03323e-16)
(7.17509e-07 0.000874927 3.17274e-18)
(0.00051223 0.000187644 2.27235e-16)
(0.000548059 0.000194926 -2.12542e-16)
(0.000623116 0.000244206 0)
(-0.000667855 0.000272682 0)
(-5.11367e-06 0.000875181 -1.5911e-18)
(0.000569178 0.000217549 2.79974e-16)
(-4.98562e-06 0.000874636 -1.57974e-18)
(-0.0006152 0.000238423 -9.82437e-17)
(0.00056449 0.000186278 0)
(4.63377e-06 0.000874849 -4.0556e-16)
(7.74026e-07 0.000874868 -4.08076e-16)
(-0.000612118 0.000246974 0)
(-0.000615539 0.000233719 0)
(5.46058e-07 0.000875554 -4.05526e-16)
(-1.74537e-05 0.000883862 0)
(-0.000609085 0.000255759 -1.95482e-16)
(-1.17114e-05 0.000879878 -4.0052e-16)
(-0.000559647 0.000205608 0)
(0.000637598 0.000192664 5.24856e-17)
(3.64975e-08 0.000873936 -1.60742e-18)
(2.0184e-06 0.000875806 2.04314e-16)
(0.000478581 0.000298578 -7.03684e-18)
(2.39666e-07 0.00087484 -2.04796e-16)
(-0.000618993 0.000228403 1.57439e-16)
(-0.000668896 0.000306561 1.38986e-16)
(-5.50005e-06 0.000875034 2.01871e-16)
(-0.000618115 0.000230978 1.4575e-16)
(-9.59166e-07 0.000875256 2.04817e-16)
(-5.15323e-06 0.000874746 -2.02609e-16)
(-5.78379e-06 0.000874917 -2.01911e-16)
(-0.000609804 0.000248053 0)
(-0.000616795 0.000231811 -4.98689e-17)
(-6.15745e-07 0.000874704 -7.98796e-19)
(5.27923e-06 0.000875092 0)
(-0.000608933 0.000248161 1.98691e-16)
(-0.00061458 0.000231956 0)
(7.93032e-07 0.000874948 -2.03405e-16)
(-4.28826e-06 0.000877653 3.16236e-18)
(0.000598833 0.00023252 -2.14738e-16)
(8.03593e-07 0.000874935 -4.10859e-16)
(-0.000661201 0.000254286 3.41581e-16)
(-3.29417e-07 0.000874929 0)
(-2.57411e-07 0.000875055 2.02764e-16)
(-1.7623e-07 0.000875022 0)
(-6.17689e-09 0.000874849 2.02824e-16)
(6.68243e-07 0.000874821 -2.02311e-16)
(0.00050085 0.000200178 1.21378e-16)
(2.2959e-07 0.000874647 2.02453e-16)
(4.03457e-07 0.000876761 -1.46601e-20)
(-2.63266e-09 0.000874914 2.04806e-16)
(-6.00566e-06 0.000875064 4.04654e-16)
(-0.000616573 0.000235795 0)
(-0.000616519 0.000237021 -5.25283e-17)
(-5.2442e-06 0.000874861 0)
(-1.21307e-07 0.000874964 0)
(-6.32062e-07 0.000874581 -2.06616e-16)
(5.27678e-06 0.000875336 2.03102e-16)
(4.38332e-06 0.000875316 2.03868e-16)
(-0.000614792 0.000240399 2.577e-16)
(4.71148e-06 0.000874939 2.03299e-16)
(-3.37805e-07 0.000875144 -2.04797e-16)
(-8.29025e-07 0.000874997 0)
(-2.33689e-07 0.00087492 -1.47072e-20)
(-0.000616233 0.000237282 1.00377e-16)
(5.2295e-06 0.000875043 0)
(4.96245e-06 0.000874714 2.03441e-16)
(-2.09185e-06 0.000876609 -2.05261e-16)
(-0.000620221 0.000231182 0)
(-2.87504e-09 0.000874938 0)
(0.000604418 0.00023268 -2.13234e-16)
(-9.76758e-08 0.000875539 1.59882e-18)
(-8.27248e-08 0.000875758 -3.98546e-19)
(-4.22672e-06 0.0008742 -7.92082e-19)
(-5.83548e-06 0.000874771 1.46025e-20)
(-4.67363e-06 0.000874369 7.9273e-19)
(-0.000623401 0.000279649 -1.24098e-16)
(-5.59742e-06 0.0008743 2.03614e-16)
(2.94123e-06 0.000875083 0)
(-5.49192e-06 0.000874431 2.02167e-16)
(-5.57267e-06 0.000874615 -2.02512e-16)
(-5.88657e-06 0.000874988 -2.03453e-16)
(-0.000743384 0.000608708 -3.0847e-16)
(-0.000141103 0.000174929 -3.843e-16)
(5.40257e-06 0.000875128 -2.03718e-16)
(-5.30176e-07 0.000874846 -2.03076e-16)
(6.10707e-08 0.000875038 -2.0303e-16)
(4.86138e-06 0.000874707 2.03502e-16)
(-0.000619416 0.000233667 -2.02477e-16)
(-6.23396e-06 0.000874629 2.02144e-16)
(-5.38806e-07 0.000875063 -2.02695e-16)
(-4.0359e-06 0.000876749 -4.03175e-16)
(-4.43764e-07 0.000874799 -1.60333e-18)
(5.77136e-06 0.000874799 2.02733e-16)
(0.00059974 0.00022982 2.13269e-16)
(-1.84244e-06 0.000875358 -2.02733e-16)
(3.41597e-07 0.000874925 -1.45911e-20)
(0.000639235 0.000263256 -2.6301e-16)
(-1.87928e-07 0.000874885 0)
(-3.70345e-07 0.000874916 0)
(-6.21676e-06 0.000874788 -4.06261e-16)
(-0.000616389 0.000236445 1.00718e-16)
(1.18951e-07 0.000874399 -4.00501e-19)
(-7.20833e-06 0.000875079 2.12284e-19)
(0.00060272 0.000228255 1.41757e-17)
(-6.6215e-06 0.000875525 2.03079e-16)
(6.56079e-06 0.000875105 2.03052e-16)
(6.0199e-06 0.000874933 -2.02905e-16)
(1.4958e-06 0.000874889 -2.03475e-16)
(-7.04704e-06 0.000875155 1.45958e-20)
(-0.000639282 0.000224627 -2.15478e-16)
(-0.000516967 0.000195565 2.65482e-16)
(-6.79153e-07 0.000874041 -1.46753e-20)
(-4.12053e-07 0.000874818 -2.02594e-16)
(-0.000611128 0.000248856 5.11245e-17)
(5.5595e-07 0.000875011 -1.47076e-20)
(-6.49784e-06 0.000874484 8.05166e-19)
(6.52236e-06 0.000874787 -4.06051e-16)
(2.92834e-06 0.000873949 2.03838e-16)
(5.52665e-06 0.000874581 -2.03836e-16)
(5.44168e-06 0.000874764 -2.0383e-16)
(6.5145e-06 0.000874901 2.03129e-16)
(5.40942e-06 0.000874655 1.98683e-19)
(6.46853e-06 0.000874934 0)
(0.000604471 0.000228571 0)
(-5.2557e-06 0.00087501 2.04492e-16)
(-4.25308e-07 0.000875926 0)
(1.17002e-06 0.000875601 2.03741e-16)
(6.48036e-06 0.000874895 0)
(6.45123e-06 0.000874984 2.03198e-16)
(6.53977e-06 0.000874825 -9.91932e-20)
(7.15847e-07 0.000875565 1.99367e-16)
(5.87631e-06 0.00087529 0)
(-1.59519e-06 0.000875798 0)
(-5.44108e-06 0.000875681 -2.04713e-16)
(-0.000614751 0.000238037 -2.4668e-21)
(5.74449e-06 0.000874886 0)
(-1.30065e-05 0.000889836 0)
(5.654e-06 0.000874901 0)
(-0.000602034 0.000229464 1.57173e-16)
(4.62905e-07 0.000874899 -2.02846e-16)
(-4.05683e-06 0.000876748 2.04685e-16)
(5.91197e-06 0.000875431 -9.94068e-20)
(-0.000600565 0.000252734 5.56775e-17)
(-0.000611693 0.000248397 -5.08328e-17)
(5.18115e-06 0.000875243 -2.03824e-16)
(-1.50325e-06 0.000873564 0)
(-2.20777e-07 0.000876497 -2.03905e-16)
(5.23763e-06 0.000875321 1.46487e-20)
(6.52263e-06 0.000874766 -2.03664e-16)
(-7.75891e-07 0.000873071 4.0505e-16)
(0.000585133 0.000191159 -3.656e-16)
(0.000603977 0.000234732 -4.30927e-16)
(-8.73719e-07 0.000875219 4.07259e-16)
(0.000595416 0.000234181 0)
(5.1187e-06 0.000875324 0)
(6.6193e-06 0.000874663 -3.97005e-19)
(-0.000630333 0.000249822 -1.84025e-16)
(-0.000613664 0.00025159 1.05907e-16)
(4.12339e-07 0.000874563 -1.00206e-19)
(5.16303e-06 0.000875405 2.03875e-16)
(5.62689e-07 0.000874926 -2.03134e-16)
(-0.000560781 0.000536896 1.02779e-16)
(4.88989e-06 0.000875299 7.96863e-19)
(-6.34405e-06 0.000875386 2.03306e-16)
(-5.19426e-07 0.000876157 2.04076e-16)
(-0.000701067 0.000359018 -2.01504e-16)
(5.05092e-06 0.00087559 0)
(-3.59351e-07 0.000875016 4.01583e-19)
(-1.32171e-06 0.000875876 -2.03109e-16)
(-0.000616824 0.000233868 0)
(0.000630297 0.000175955 3.85792e-16)
(-0.000608059 0.00025417 5.36688e-17)
(4.83038e-06 0.000875391 -7.96995e-19)
(6.82468e-07 0.000875209 -2.03834e-16)
(-5.64488e-06 0.000874412 -2.03661e-16)
(-0.000613781 0.000246666 3.04101e-16)
(4.85789e-06 0.000875688 -2.04094e-16)
(-7.44969e-06 0.000874731 7.93037e-19)
(3.90276e-07 0.000874544 2.00596e-19)
(6.03655e-06 0.000874729 0)
(-2.71463e-07 0.000876292 0)
(6.10306e-06 0.000874654 0)
(6.34886e-07 0.00087526 0)
(-0.000614861 0.000234001 -5.05815e-17)
(-6.65109e-06 0.000874406 0)
(-4.32862e-07 0.000874965 0)
(0.000649051 0.000305499 1.57513e-16)
(4.5671e-07 0.000875242 0)
(-3.56344e-05 0.000910536 0)
(-1.77554e-07 0.000876309 4.08019e-16)
(3.25154e-07 0.000874549 0)
(0.000599319 0.000219499 -4.81154e-17)
(0.000602584 0.000234053 0)