/*--------------------------------*- C++ -*----------------------------------*\
  =========                 |
  \\      /  F ield         | OpenFOAM: The Open Source CFD Toolbox
   \\    /   O peration     | Website:  https://openfoam.org
    \\  /    A nd           | Version:  12
     \\/     M anipulation  |
\*---------------------------------------------------------------------------*/
FoamFile
{
    format      ascii;
    class       surfaceScalarField;
    location    "0.05";
    object      phi;
}
// * * * * * * * * * * * * * * * * * * * * * * * * * * * * * * * * * * * * * //

dimensions      [0 3 -1 0 0 0 0];

internalField   nonuniform List<scalar> 
6438
(
-8.25896e-09
1.01441e-06
-1.00615e-06
-9.00725e-09
1.17825e-06
-1.16924e-06
-1.10246e-06
-1.85373e-07
1.28783e-06
1.04516e-06
-1.14705e-06
1.01886e-07
1.61142e-06
-1.25785e-06
-3.53571e-07
3.72323e-07
1.2391e-06
-1.24705e-06
1.44588e-07
-1.08889e-06
1.07988e-06
1.17419e-06
-1.4047e-06
2.30506e-07
1.09306e-06
-1.27946e-06
1.86398e-07
-1.05831e-06
1.28305e-06
-2.24738e-07
2.55678e-07
-1.16284e-06
9.07163e-07
-1.30264e-06
2.44326e-07
1.00378e-06
4.62662e-07
-1.46644e-06
9.43871e-07
-9.5213e-07
-5.1824e-08
1.10415e-06
-1.05232e-06
-1.39321e-06
1.34953e-06
4.36823e-08
-1.05507e-06
1.2783e-06
-2.23231e-07
-1.30016e-06
2.45091e-07
4.14126e-07
8.79092e-07
-1.29322e-06
-3.03026e-07
-1.98137e-07
5.01163e-07
-6.51648e-08
1.15977e-06
-1.09461e-06
-1.07199e-06
-1.75296e-07
1.24729e-06
-1.31082e-06
5.76949e-07
7.33866e-07
-1.14261e-06
1.07744e-06
-1.01428e-06
1.23519e-06
-2.20913e-07
-1.2328e-06
1.60813e-07
1.17548e-06
-9.19806e-07
-1.06627e-06
-1.95164e-07
1.26143e-06
-1.28471e-06
2.70432e-07
9.92284e-07
-1.23897e-06
2.46683e-07
5.18121e-09
-1.21054e-06
1.20536e-06
1.18256e-06
-1.18788e-06
5.31881e-09
-1.17198e-06
1.98639e-07
9.73346e-07
-1.58728e-06
2.5636e-07
1.33092e-06
1.11414e-06
-1.10896e-06
1.1217e-06
-7.65429e-08
7.29365e-07
1.01988e-06
-1.74924e-06
-3.54677e-07
1.35846e-06
-1.04386e-06
1.1479e-06
-1.04044e-07
-1.21373e-06
1.20187e-06
1.18581e-08
-5.05734e-07
9.19859e-07
1.08427e-06
8.79167e-09
-1.30256e-06
1.27641e-06
2.61525e-08
1.1704e-06
-1.78112e-07
-8.65622e-07
8.13798e-07
-1.51316e-06
2.55312e-07
1.14789e-06
1.11143e-07
-1.25904e-06
-8.98321e-07
-2.73664e-07
-1.62923e-07
-1.07612e-06
1.22197e-06
-1.45842e-07
-8.07193e-07
1.15892e-06
-3.51725e-07
1.16193e-06
-1.16193e-06
3.63203e-07
8.82701e-07
1.15909e-07
-9.9861e-07
5.16221e-07
2.48921e-07
-7.65141e-07
9.84503e-07
2.0105e-07
-1.18555e-06
9.50691e-07
-3.73742e-07
-5.51042e-07
-9.62121e-07
-1.06267e-08
1.02369e-06
-1.01306e-06
-1.26446e-06
1.26446e-06
-1.30747e-06
1.31941e-06
-1.19428e-08
5.22965e-08
9.75048e-07
-1.02734e-06
3.6632e-09
-1.1941e-06
1.19044e-06
1.10764e-06
-1.10397e-06
-1.20694e-06
1.40675e-07
-1.21022e-06
-9.23397e-08
-1.0375e-06
1.13991e-06
-1.02407e-07
1.1523e-07
9.96223e-07
-1.11145e-06
-1.22322e-06
1.17662e-06
4.66034e-08
1.19289e-06
-1.19289e-06
1.11025e-06
6.39388e-08
-7.28099e-07
-5.51359e-07
1.0371e-06
2.20666e-07
-1.25777e-06
-1.01921e-06
-1.94517e-07
9.0479e-07
7.00832e-07
-1.60562e-06
-1.40201e-06
8.96272e-07
-8.95536e-07
-5.06469e-07
1.22667e-06
-1.89573e-07
7.35601e-07
-2.1938e-07
1.00023e-06
1.11068e-07
-1.1113e-06
-1.23244e-06
-7.50306e-08
-1.78338e-07
-3.00311e-07
-9.64146e-07
1.33625e-06
-1.33625e-06
-8.85212e-07
-3.38008e-07
-8.15814e-08
-1.5057e-06
-1.15245e-06
1.14884e-06
3.61262e-09
4.14894e-08
-1.1699e-06
1.12841e-06
-1.28496e-07
1.12872e-06
1.15403e-06
2.8531e-08
-1.20576e-06
-1.87449e-07
-1.21676e-06
1.24611e-06
-2.93533e-08
1.27264e-06
-7.11493e-07
-5.61143e-07
1.1418e-06
-1.10031e-06
2.41632e-08
1.28187e-06
-6.51948e-07
-6.29922e-07
7.26927e-07
5.4571e-07
1.17491e-06
-1.17491e-06
-9.01275e-07
1.29115e-06
-3.89879e-07
-1.1316e-06
5.54803e-08
-1.55207e-07
-9.15567e-07
1.07077e-06
-1.06116e-06
4.19512e-08
-1.13722e-06
2.35949e-07
9.78271e-07
2.13179e-07
-1.19145e-06
-7.40173e-08
1.05229e-06
-1.02459e-06
1.18339e-06
-1.58799e-07
-1.0855e-06
4.16425e-08
7.53895e-07
5.27975e-07
1.13278e-06
-2.25614e-07
4.84884e-08
1.11344e-06
-9.78326e-07
-8.28364e-08
1.02129e-06
2.19806e-07
-1.2411e-06
-5.65039e-07
-4.88833e-07
1.05387e-06
7.44291e-07
-9.69002e-08
-6.47391e-07
-1.21054e-06
2.47304e-07
1.20872e-06
-1.45603e-06
-5.63147e-07
2.60121e-07
1.20929e-06
2.59016e-08
1.3155e-06
-6.82082e-07
-6.33418e-07
4.43544e-07
8.71956e-07
1.2173e-06
-1.96012e-07
1.49386e-06
-7.64497e-07
-1.10579e-06
4.67168e-09
1.10111e-06
-1.58361e-06
1.59314e-07
1.4243e-06
-1.86703e-08
-1.10045e-06
1.11912e-06
1.20803e-06
6.83801e-08
-9.33188e-07
9.22562e-07
-1.11318e-06
1.13526e-06
-2.2077e-08
1.12817e-06
-1.14684e-06
1.16428e-06
-1.16428e-06
1.14382e-06
3.44282e-08
1.14743e-06
-2.64734e-07
1.13178e-06
-1.07948e-06
-9.9659e-07
8.41383e-07
1.07769e-08
1.09881e-06
-1.10959e-06
1.29571e-06
-9.0465e-07
-3.91058e-07
-1.1941e-06
-1.76534e-08
1.37554e-08
-1.10265e-06
-1.10195e-06
6.44546e-08
1.19959e-08
1.10215e-06
1.06673e-06
-9.51505e-07
-1.0997e-06
7.51143e-08
1.11494e-06
-3.06718e-08
-4.05144e-08
9.71235e-07
-9.30721e-07
7.67845e-07
5.27863e-07
-1.14367e-06
2.47274e-07
8.96394e-07
1.16348e-06
-4.56304e-09
-1.54203e-06
1.38728e-07
1.4033e-06
-1.59867e-08
-1.09477e-06
1.11076e-06
7.26814e-07
1.74772e-08
7.00757e-08
1.09341e-06
1.08328e-06
9.22076e-08
1.12178e-06
-1.13777e-06
-1.16736e-06
-3.84019e-08
1.1938e-06
-1.28506e-06
9.12608e-08
-1.06465e-06
-4.11334e-08
-1.29675e-06
5.62783e-07
7.33963e-07
-9.33782e-10
1.12033e-06
3.94418e-08
-1.05621e-06
1.22768e-06
-1.71477e-07
-1.15866e-06
1.00072e-06
1.57939e-07
-1.57551e-07
4.05967e-07
-2.48416e-07
-3.64163e-07
-9.20545e-07
-1.1699e-06
-9.61371e-09
1.11725e-06
3.45755e-07
9.454e-07
-1.91925e-08
-1.13685e-06
-5.75771e-09
-2.44116e-08
-1.24235e-06
1.04887e-06
1.93485e-07
-7.29435e-08
9.27189e-07
1.83062e-07
1.81665e-06
-7.96771e-07
-3.83122e-07
-9.17039e-07
1.13864e-06
1.53868e-08
-9.74744e-07
4.09705e-07
-4.41807e-07
-6.92437e-07
1.13424e-06
-3.91924e-07
-9.10711e-07
-6.35167e-07
1.53996e-06
-1.1759e-06
3.90456e-08
-1.11033e-06
1.11464e-06
-4.30866e-09
-9.13679e-07
8.73165e-07
-1.35429e-08
-1.08815e-06
1.1017e-06
-1.19676e-06
2.08637e-08
9.96909e-07
-1.18577e-06
1.88862e-07
1.11202e-06
-1.12556e-06
9.9181e-07
-3.74586e-07
-6.17225e-07
-1.50206e-06
5.36047e-07
9.6601e-07
1.01705e-06
9.78885e-08
8.38832e-07
5.10697e-07
2.45189e-07
1.09106e-06
-2.94234e-07
-1.04202e-06
-1.21221e-06
1.20124e-06
1.09783e-08
-1.20882e-06
-3.39365e-09
-1.20308e-06
-5.73701e-09
4.47628e-09
3.13478e-07
-1.75026e-06
1.43678e-06
-1.29678e-06
1.54409e-06
1.02444e-06
-1.01366e-06
1.0959e-06
4.59001e-08
8.93541e-08
9.02456e-07
-1.10045e-06
-9.97166e-07
9.92691e-07
1.2332e-07
-1.11601e-06
-5.61794e-09
-2.38677e-07
1.74588e-06
-1.5072e-06
1.65555e-06
-1.19289e-06
-5.03243e-07
7.52163e-07
-3.20155e-07
-9.76592e-07
-8.65214e-07
-6.36843e-07
-1.09922e-06
-6.81361e-08
-1.10828e-06
1.10814e-06
1.36926e-10
-1.74242e-07
1.03879e-06
-8.64548e-07
-1.19108e-06
1.19914e-06
-8.06347e-09
-1.17842e-06
-1.26602e-08
-1.51343e-06
9.63007e-08
1.41713e-06
-1.05544e-06
-6.85145e-08
1.12396e-06
1.18716e-06
1.19866e-08
-2.10721e-07
-1.29462e-06
4.75669e-07
8.18949e-07
7.1529e-09
-6.85594e-07
-6.09024e-07
-1.59254e-08
-1.22475e-08
-1.0814e-06
1.09365e-06
-1.11079e-06
5.53448e-08
1.00369e-06
1.34952e-07
1.15628e-06
-1.10779e-06
1.10079e-06
-1.11304e-06
1.09657e-06
3.15983e-08
5.39521e-07
1.11603e-06
1.13211e-06
-2.04923e-07
-8.98524e-08
-1.49376e-06
-6.45528e-08
9.03806e-07
-8.39254e-07
-1.17297e-06
-5.453e-09
-1.17273e-06
-2.39936e-10
1.18175e-06
-1.17301e-06
-8.73483e-09
1.16941e-06
1.23396e-08
-1.09477e-06
2.69469e-07
-3.6874e-07
9.92715e-08
-1.32286e-06
7.75718e-07
5.47139e-07
5.91873e-07
-1.18683e-06
5.94962e-07
-1.03567e-06
-9.59316e-08
-1.10456e-06
1.09912e-06
5.43958e-09
-1.14737e-06
1.10599e-06
4.13783e-08
-9.15855e-08
1.17437e-06
-1.08278e-06
-1.13948e-06
2.86937e-08
-1.26561e-06
1.57909e-06
-1.16349e-07
-1.02732e-06
-1.18971e-06
1.09813e-06
-9.32371e-07
-8.52447e-08
1.01762e-06
-8.6865e-07
1.16215e-06
7.26188e-09
-7.92651e-07
-2.12472e-07
2.35845e-07
-2.33732e-08
-1.05799e-08
4.32279e-08
-1.50939e-06
1.46616e-06
-8.39845e-07
-4.07202e-07
-1.17695e-06
1.15386e-06
2.30911e-08
-1.15894e-06
-1.80112e-08
-4.15686e-07
2.58135e-07
1.09455e-06
2.72333e-08
1.16335e-06
-1.88303e-07
1.15848e-06
-1.1578e-06
-6.82306e-10
-3.01687e-09
-1.07289e-06
1.0759e-06
1.2133e-06
-8.67547e-07
-1.45337e-08
1.19848e-06
6.80586e-07
-1.87907e-06
1.1864e-06
-1.1864e-06
1.86049e-07
1.07841e-06
-4.18784e-07
-7.43145e-07
-9.47203e-07
1.14172e-06
-1.94513e-07
-1.23683e-07
-1.02369e-06
1.09508e-06
-1.0981e-06
-1.04687e-06
1.61393e-08
1.03073e-06
2.01829e-07
-1.06327e-06
8.61442e-07
-1.10117e-06
1.08933e-06
1.18332e-08
7.05257e-07
5.08044e-07
-3.4001e-08
-1.78471e-07
-6.62593e-07
-6.60265e-07
-2.57716e-07
-1.17516e-06
1.18951e-07
-1.08815e-06
9.85735e-07
2.08063e-07
-9.12736e-07
-1.0275e-06
9.5133e-08
-1.04888e-06
6.07073e-07
1.1905e-06
-9.67475e-07
-2.23027e-07
2.02392e-07
9.5389e-07
-8.35997e-07
-3.96806e-07
-1.16244e-06
1.16244e-06
1.16462e-06
-1.12034e-06
-4.42807e-08
6.61733e-08
-1.10185e-06
-9.30559e-07
1.05184e-06
-1.21283e-07
-3.67265e-07
1.69128e-07
1.08439e-06
-1.08978e-06
5.38996e-09
1.14172e-06
1.21414e-08
1.1519e-06
1.27217e-08
1.738e-06
-1.10941e-06
-3.00732e-08
-9.73165e-07
7.98923e-07
1.09268e-06
1.93379e-08
1.14867e-06
-1.1429e-06
-5.77619e-09
-1.02654e-08
-1.60809e-08
1.20819e-07
-9.8488e-07
8.6406e-07
-3.34497e-08
-1.50858e-06
3.61015e-07
8.01571e-08
-1.01072e-06
-1.09815e-06
1.08119e-06
1.69644e-08
1.09445e-06
-9.75389e-08
-5.08578e-07
-6.793e-07
-1.53546e-06
1.13599e-07
-6.16842e-07
-1.82465e-07
4.97251e-09
1.12791e-06
-1.00459e-06
-1.0814e-06
-1.08295e-06
2.84827e-08
1.05447e-06
1.52787e-06
2.18011e-07
8.80786e-07
4.38628e-07
1.06649e-06
-4.74615e-07
1.11193e-06
-6.30587e-08
2.56014e-06
-1.87955e-06
-1.75026e-06
-5.62205e-07
-5.96459e-07
-1.44313e-08
1.18742e-06
-1.11253e-06
-7.48873e-08
1.12632e-06
2.55723e-08
1.30497e-07
-1.0777e-06
-7.98899e-07
9.19718e-07
1.09093e-06
9.86764e-09
8.49756e-07
3.76916e-07
1.14475e-06
4.26752e-08
1.144e-06
-1.12769e-06
-1.63067e-08
-5.17023e-07
-7.21945e-07
-5.15175e-08
1.05224e-06
1.93033e-08
-1.21219e-06
9.48288e-07
-7.46459e-07
-1.65733e-08
2.36637e-08
9.2634e-07
-1.00539e-06
7.90518e-08
1.70793e-07
9.70923e-07
1.55003e-06
-1.50681e-06
5.40616e-07
6.81349e-07
-1.09476e-06
1.08292e-06
1.18424e-08
-2.50146e-08
-6.37941e-07
3.50837e-07
2.87104e-07
-1.17079e-08
1.18803e-06
-1.18803e-06
1.34664e-06
-7.82382e-07
-5.64258e-07
-9.79167e-07
-1.67879e-07
8.25313e-07
3.9199e-07
1.13849e-06
6.2603e-09
-1.07289e-06
1.06435e-06
6.95941e-09
-1.0713e-06
8.70348e-07
1.21219e-06
-1.20536e-06
3.04498e-08
1.41569e-06
-1.25637e-06
1.09406e-06
-1.1605e-06
1.08914e-06
-2.47991e-08
9.82072e-07
-1.06443e-06
1.05923e-06
5.19797e-09
4.84517e-08
8.5437e-07
-9.02822e-07
-9.6643e-07
7.98854e-07
-7.20406e-08
1.00923e-06
1.38669e-07
-1.00109e-08
-9.36544e-07
-1.63161e-07
-1.40553e-06
8.88506e-07
3.16363e-09
-1.06782e-06
-1.13591e-06
-5.38079e-08
1.51877e-06
-8.17937e-07
1.07922e-08
-1.97803e-07
1.20776e-06
-1.00995e-06
-5.15329e-07
-1.22613e-07
1.05982e-06
-1.07082e-06
1.0993e-08
-1.09406e-06
1.08741e-06
4.71855e-07
6.71938e-07
-1.14379e-06
1.13448e-06
-2.08145e-07
9.20647e-08
1.01208e-06
1.11789e-06
1.09796e-07
1.21235e-07
1.48234e-07
-1.19044e-06
2.61574e-08
-9.43199e-07
1.0737e-06
-5.47007e-07
6.60606e-07
1.00933e-07
-9.90939e-07
8.90006e-07
-8.48419e-09
1.82962e-08
-9.88196e-07
-1.12679e-06
1.10566e-06
2.11345e-08
-1.0784e-06
1.1092e-07
7.05774e-07
6.40867e-07
-6.05925e-07
1.24247e-06
-6.36541e-07
1.24869e-06
-1.16548e-06
-8.32123e-08
3.19996e-08
7.66855e-07
-1.07159e-06
-1.13673e-08
1.08761e-06
1.53242e-09
5.34766e-07
-1.83929e-07
1.38436e-06
-1.24563e-06
9.84459e-07
1.55447e-07
6.18349e-08
-1.1043e-06
1.67759e-07
1.65892e-08
-9.59788e-07
1.23253e-06
-9.96583e-07
1.00407e-06
-6.08975e-08
-9.56116e-07
1.01701e-06
-1.08276e-06
1.12817e-06
-1.35288e-08
-1.63995e-06
1.32745e-07
-7.22543e-09
1.06186e-06
2.10593e-08
-9.99721e-07
-1.10101e-06
1.09669e-06
4.32738e-09
1.31903e-06
-7.67594e-07
-5.51433e-07
-9.21568e-07
-8.35871e-08
1.00515e-06
-2.17115e-09
-1.08449e-06
2.34925e-08
-1.18599e-07
1.16194e-06
-1.04334e-06
-1.06517e-06
1.07056e-06
-1.54688e-06
-2.25211e-07
-1.49532e-06
1.45751e-06
3.78119e-08
8.49914e-07
4.33134e-07
9.96809e-07
9.06368e-08
-1.08745e-06
1.0605e-06
-4.34455e-08
8.51613e-07
4.26687e-07
-7.5746e-07
2.42131e-07
-1.07404e-06
9.30761e-07
-1.05926e-06
-1.44008e-06
1.43492e-06
5.16174e-09
1.29804e-06
-1.04168e-06
1.06235e-06
-3.11861e-09
6.58284e-08
-9.90879e-07
9.25051e-07
-1.60374e-08
-1.42404e-06
1.2869e-06
-1.2869e-06
-5.86923e-07
1.10386e-06
-5.1694e-07
-1.06233e-06
1.06233e-06
1.08724e-06
-9.6053e-07
-1.26706e-07
1.00489e-06
2.41223e-07
1.13175e-06
-9.29359e-07
1.12079e-06
-1.26442e-08
-8.74462e-07
-1.40844e-07
1.01531e-06
-1.42271e-06
1.42771e-06
-4.99734e-09
1.31536e-06
-7.91835e-07
-5.23522e-07
1.91517e-07
9.40234e-07
-1.43761e-06
1.43032e-06
7.28851e-09
-4.14698e-10
-1.07103e-08
1.41855e-06
-1.40784e-06
-1.43237e-06
1.43237e-06
-1.71244e-08
1.07695e-06
1.53821e-06
-1.43319e-06
-1.05019e-07
-1.43859e-06
1.42788e-06
1.4371e-06
-1.42987e-06
-7.22952e-09
-1.04707e-06
-2.3744e-08
1.22551e-06
-1.66289e-08
1.42779e-06
-1.41116e-06
1.4282e-06
-1.43092e-06
2.72318e-09
-1.08089e-06
1.42066e-06
-2.11342e-09
-1.09988e-06
1.09026e-06
9.62696e-09
-1.42041e-06
1.42568e-06
-5.26839e-09
1.08843e-06
-1.05995e-06
-1.43477e-06
1.41814e-06
1.10135e-06
-3.51199e-07
5.2258e-07
6.85176e-07
-7.93841e-07
-6.11688e-07
-1.42979e-06
1.42979e-06
-1.43638e-06
-2.20537e-09
1.32991e-06
-2.45157e-07
-1.08475e-06
-9.34233e-07
6.33921e-07
3.60839e-08
1.42298e-06
-1.42747e-06
4.49046e-09
1.04743e-06
-1.04732e-06
-1.05971e-10
1.46735e-06
-1.42908e-06
-3.82639e-08
1.41536e-06
7.61915e-09
1.41281e-06
1.49749e-08
-3.0418e-09
-1.05929e-06
-1.30509e-06
7.19623e-07
5.85464e-07
-1.05776e-06
1.06472e-06
1.41999e-06
-4.6225e-09
1.48897e-07
9.63032e-07
7.63143e-07
-2.91287e-07
-1.43277e-06
-2.00021e-09
1.16831e-06
6.92404e-07
-1.18124e-06
-1.81293e-07
-1.45865e-06
1.068e-06
-1.07495e-06
6.95576e-09
-4.96812e-08
-1.44564e-06
1.11171e-06
-1.25943e-08
1.23415e-06
-8.43519e-07
-3.9063e-07
-1.06942e-06
1.42221e-06
-1.42221e-06
1.01935e-06
1.50962e-08
-1.03445e-06
1.09682e-06
-1.42524e-06
1.42333e-06
1.90861e-09
1.41491e-06
-1.42879e-06
1.38792e-08
8.9555e-07
-1.18978e-06
-3.92022e-09
-1.41516e-06
1.41908e-06
1.41188e-06
-1.4158e-06
-4.66128e-08
1.50412e-06
-1.12713e-06
1.22343e-06
-1.28176e-06
8.89837e-07
-2.25266e-08
1.45744e-06
1.22239e-07
6.29924e-07
1.47585e-08
1.31515e-06
-3.68904e-09
1.13717e-06
-1.13348e-06
-9.89702e-09
-1.4286e-06
-9.00876e-09
1.17475e-06
-1.18481e-07
-1.05627e-06
-1.41911e-06
1.41911e-06
8.30021e-07
-7.14112e-07
-1.43091e-06
1.42709e-06
3.82444e-09
1.09359e-06
-1.09359e-06
1.06339e-06
-1.5963e-08
1.42107e-06
-1.42336e-06
2.29733e-09
-1.37122e-06
3.74053e-07
2.7967e-10
-1.05604e-06
1.05576e-06
1.14487e-06
-9.6168e-09
1.42387e-06
1.32338e-08
8.64034e-07
1.47149e-07
-1.01118e-06
1.4284e-06
-7.73472e-09
1.11193e-06
-1.11193e-06
1.41934e-06
-1.4143e-06
-5.04859e-09
-1.0868e-06
1.07808e-06
8.71484e-09
1.43009e-06
-1.42579e-06
-4.29763e-09
-1.42154e-06
1.42154e-06
2.13158e-07
9.96473e-07
3.3722e-08
-1.03019e-06
-1.43103e-06
1.42723e-06
3.79849e-09
-5.49435e-09
-1.07265e-06
1.06655e-06
1.44659e-09
1.32953e-06
-2.48969e-07
-1.08056e-06
9.19211e-07
1.41573e-06
-1.41967e-06
3.94709e-09
1.0957e-06
1.16814e-06
1.64493e-08
1.0029e-06
1.45181e-06
-2.79463e-08
1.41092e-06
4.80272e-09
1.0394e-06
-1.0394e-06
-5.47007e-07
1.43578e-06
-1.42441e-06
-4.37773e-09
1.42382e-06
-1.4185e-06
-5.32313e-09
2.82928e-08
-1.45107e-06
1.42278e-06
1.49879e-07
-1.43678e-06
-1.42842e-06
1.42591e-06
2.51373e-09
1.03131e-06
-1.03089e-06
-4.20594e-10
1.08724e-06
-9.59276e-07
9.59276e-07
1.41385e-06
-2.9297e-09
-1.0602e-06
-9.90879e-07
9.96809e-07
1.10114e-06
-1.18099e-08
-3.29099e-09
1.12784e-07
-1.40408e-06
1.42348e-06
-1.42406e-06
5.7098e-10
3.3129e-08
9.98179e-07
3.35039e-08
1.14125e-06
1.07075e-06
-7.35849e-09
-1.42537e-06
1.42361e-06
1.75929e-09
1.41269e-06
-1.41689e-06
4.19551e-09
-1.42385e-06
-7.0561e-09
1.42015e-06
-1.4163e-06
-3.84808e-09
1.07295e-06
2.06333e-08
1.42082e-06
6.26563e-09
-1.88511e-09
1.4178e-06
5.80794e-09
-2.36231e-10
-1.05101e-06
-1.43942e-06
1.53828e-08
-1.06532e-06
1.06532e-06
1.44942e-08
1.31504e-06
-1.08253e-06
2.08066e-07
7.67791e-09
1.42052e-06
5.9238e-08
-1.0273e-06
9.68058e-07
1.02587e-08
1.42211e-06
1.35691e-06
-1.4798e-06
1.07331e-06
3.86198e-08
1.41188e-06
-1.08504e-08
1.00732e-06
-1.03517e-06
4.28571e-09
1.0206e-06
-1.56563e-07
-1.41542e-06
1.41542e-06
-1.42294e-06
-8.09112e-09
9.6053e-07
-9.95351e-07
3.48204e-08
-1.42211e-06
1.04706e-06
-1.04678e-06
1.42009e-06
7.13483e-09
-1.42067e-06
-1.26498e-06
8.81855e-07
-1.42699e-06
1.42457e-06
2.42413e-09
9.68405e-07
9.20925e-08
1.05604e-06
6.29127e-09
-1.41074e-06
1.4206e-06
-9.86571e-09
-1.07429e-06
1.06507e-06
9.22806e-09
-1.41524e-06
4.49677e-09
1.06822e-06
-1.67066e-09
5.79037e-08
-1.10241e-06
1.0445e-06
1.415e-06
-1.42139e-06
6.39235e-09
1.15148e-06
-1.20529e-06
1.41482e-06
-1.41466e-06
-1.53028e-10
-9.02089e-07
9.02089e-07
-1.11366e-06
1.11366e-06
-1.41316e-06
-2.07242e-09
-6.60606e-07
7.82845e-07
-1.4173e-06
1.4152e-06
2.102e-09
1.13335e-08
1.41846e-06
8.83778e-07
-7.82845e-07
-8.83778e-07
9.3223e-07
9.35764e-07
-1.07661e-06
1.2967e-06
-7.66693e-07
-5.30003e-07
-1.4223e-06
-6.11607e-09
-2.0444e-07
-9.3223e-07
1.13667e-06
1.42046e-06
5.44483e-09
-1.07714e-06
9.95002e-07
1.4247e-06
-1.42179e-06
-2.9155e-09
-1.41614e-06
-1.06746e-06
1.07429e-06
-3.48932e-08
-3.86456e-09
1.42385e-06
1.41767e-06
-1.05576e-06
-1.45161e-06
-8.52937e-07
1.08745e-06
-2.34508e-07
-1.40995e-06
-5.2068e-09
1.416e-06
1.80315e-09
8.25744e-07
-8.44453e-07
1.87092e-08
1.65334e-09
9.95351e-07
-1.03535e-06
3.99998e-08
6.57065e-07
6.61962e-07
-1.42167e-06
-5.31713e-09
-1.07843e-06
1.40978e-06
-1.40857e-06
-1.2088e-09
1.41991e-06
4.65563e-09
-1.42413e-06
1.42257e-06
1.56672e-09
1.08992e-06
1.07295e-06
-1.41344e-06
1.41026e-06
3.18245e-09
1.42342e-06
-1.42276e-06
-6.57066e-10
-1.0598e-06
1.07331e-06
1.41276e-06
-1.41276e-06
5.76008e-09
1.42456e-06
-8.91775e-07
-1.90753e-07
1.41564e-06
-6.38285e-10
-1.8123e-07
9.66502e-07
-7.85272e-07
1.41207e-06
-1.41085e-06
-1.21708e-09
4.37753e-09
1.41783e-06
1.40947e-06
-1.41077e-06
1.30478e-09
-1.42608e-06
-1.42086e-06
-8.56389e-07
1.28034e-09
1.42205e-06
-1.64952e-09
-1.41745e-06
1.4191e-06
-1.41284e-06
1.40972e-06
3.1263e-09
-1.42163e-06
-2.50545e-09
-1.07617e-06
-1.04035e-06
5.17788e-09
1.42012e-06
2.44816e-09
-1.41155e-06
1.41095e-06
6.01271e-10
-1.41251e-06
5.4144e-09
1.40709e-06
1.42122e-06
3.48086e-09
-1.41677e-06
-5.01262e-09
-1.0346e-06
-4.79873e-09
1.42054e-06
-1.42139e-06
8.5347e-10
1.41246e-06
-1.41411e-06
-1.41502e-06
1.41306e-06
1.96491e-09
1.41147e-06
-1.41033e-06
-1.14227e-09
1.06454e-06
7.83406e-10
1.42098e-06
2.43803e-09
-1.41896e-06
-3.8028e-09
-1.42411e-06
1.07429e-06
-1.41225e-06
1.4094e-06
2.85326e-09
9.37587e-07
-9.98484e-07
-1.40826e-06
1.41359e-06
-5.32963e-09
1.41269e-06
-1.41483e-06
2.13644e-09
-3.5943e-09
-1.42022e-06
-1.41247e-09
-3.75908e-09
-1.25423e-06
8.90066e-07
-2.47643e-09
1.41246e-06
-2.39226e-09
-1.55319e-09
-1.42145e-06
1.23438e-09
5.45381e-07
1.19365e-06
-1.73903e-06
-2.94451e-07
1.42051e-06
2.87605e-11
-1.41783e-06
2.69969e-09
1.41641e-06
-1.41865e-06
-2.73617e-09
-1.06822e-06
-1.42289e-06
1.43455e-09
5.12809e-09
1.41594e-06
-2.04273e-10
6.83186e-09
-1.39888e-06
1.39205e-06
1.42251e-06
-1.42178e-06
-7.27139e-10
-1.08702e-06
1.95242e-07
1.41977e-06
-1.41729e-06
-2.48372e-09
-1.42066e-06
-1.0537e-06
-5.58847e-08
1.41118e-06
-1.41006e-06
-1.12557e-09
7.50276e-09
-1.40021e-06
1.3927e-06
-1.42215e-06
1.41946e-06
2.69102e-09
-1.07588e-06
1.0666e-06
9.28373e-09
1.20579e-09
-1.42211e-06
-7.72908e-10
-1.08289e-06
2.24554e-07
8.58341e-07
-1.42028e-06
-1.86852e-09
1.42201e-06
4.96569e-10
-1.41966e-06
-2.12032e-09
-5.80356e-09
-1.4222e-06
9.18199e-11
-1.02324e-06
-1.16927e-07
1.14017e-06
8.17564e-07
6.04615e-09
-1.41641e-06
1.06727e-06
-2.2004e-09
-1.41113e-06
1.41113e-06
-2.74684e-09
1.42134e-06
6.72943e-10
-1.13714e-09
2.2649e-09
2.32412e-09
1.42187e-06
-5.32344e-10
8.47262e-10
1.42151e-06
-1.42151e-06
-1.23788e-12
1.02609e-06
-1.02609e-06
-1.4186e-06
1.4155e-06
3.10459e-09
1.41354e-06
-1.4121e-06
-1.43722e-09
-2.04572e-09
1.42099e-06
8.84307e-10
1.42105e-06
4.63204e-10
-5.23242e-10
1.42108e-06
1.41983e-06
-1.42059e-06
7.63955e-10
-1.43352e-06
-1.41527e-06
-3.33396e-09
1.09472e-06
-1.35357e-08
1.41854e-06
1.2873e-09
1.1801e-08
1.41964e-06
-1.41804e-06
-1.60011e-09
-1.01457e-06
1.01457e-06
8.13251e-09
1.41341e-06
-1.41087e-06
1.41317e-06
-2.29458e-09
1.41933e-06
3.1349e-10
7.78933e-09
1.06296e-06
1.41766e-06
-1.41708e-06
-5.80788e-10
-1.40639e-06
-4.48232e-09
1.41379e-06
-1.41494e-06
1.14912e-09
1.41671e-06
9.45351e-10
1.4193e-06
1.74681e-09
-1.39612e-08
-1.40349e-06
-2.01877e-09
-1.2513e-07
-9.5257e-07
1.41143e-06
-1.41281e-06
1.37759e-09
4.22691e-08
9.83817e-07
1.41749e-06
-1.41612e-06
-1.37754e-09
-1.29262e-09
-2.49804e-08
-1.17723e-06
1.20221e-06
-1.02676e-06
1.0386e-06
-1.18407e-08
-1.40474e-06
1.40521e-06
-4.70282e-10
1.41581e-06
1.67926e-09
-1.41154e-06
-8.81061e-07
1.42644e-06
1.41642e-06
-1.41435e-06
-2.07048e-09
-1.41773e-06
1.41776e-06
-3.04906e-11
1.41379e-06
-1.41252e-06
-1.2712e-09
-1.3801e-07
-1.2129e-06
1.35091e-06
1.41492e-06
1.50016e-09
-1.40589e-06
1.14449e-09
1.41663e-06
-1.41482e-06
-1.80656e-09
1.06454e-06
-1.08893e-06
1.08893e-06
1.4161e-06
-1.41336e-06
-2.73614e-09
-2.79238e-09
1.41665e-06
-2.23441e-09
-1.06602e-06
1.41403e-06
2.06977e-09
-1.41758e-06
-2.69683e-09
-1.40366e-06
1.40443e-06
-7.67403e-10
1.41774e-06
7.97049e-10
2.44159e-08
1.40329e-06
-2.94611e-10
1.41653e-06
3.61233e-09
1.06208e-06
5.18303e-09
1.78215e-10
-1.40511e-06
1.45341e-09
1.08238e-07
4.0279e-09
4.54692e-08
1.41249e-06
-1.41381e-06
1.31439e-09
-1.40216e-06
1.40383e-06
-1.66204e-09
2.6074e-08
-1.0641e-06
1.03803e-06
1.90016e-07
-1.10694e-06
9.16925e-07
4.01194e-07
1.0044e-06
-1.0044e-06
1.41143e-06
-1.41143e-06
-1.15587e-06
6.46191e-10
-1.41409e-06
1.08356e-06
1.41609e-06
3.23725e-09
-2.65988e-07
-4.96585e-07
7.62573e-07
-1.40427e-06
2.10847e-09
-1.40487e-06
-4.61967e-08
6.00347e-07
-9.89931e-07
3.89584e-07
-9.89128e-10
9.72143e-09
1.40387e-06
2.47745e-09
1.06574e-06
-1.41821e-06
3.00803e-09
1.41241e-06
9.01067e-07
-1.09965e-06
1.98579e-07
9.16912e-07
-3.16565e-07
-1.78351e-09
-1.41106e-06
1.41849e-06
-1.40877e-06
-1.41429e-06
-1.40031e-06
1.39896e-06
1.35207e-09
3.49073e-10
1.41485e-06
1.40994e-06
1.48806e-09
1.28839e-06
-8.55706e-07
-4.32686e-07
-3.82443e-09
1.07714e-06
1.41443e-06
2.28539e-09
1.2885e-06
-1.42651e-06
9.73078e-09
1.40381e-06
-1.67922e-09
-1.41057e-06
-1.40202e-06
1.70622e-09
-1.02916e-06
2.40143e-09
1.08213e-06
-8.67761e-07
-2.14369e-07
1.4074e-06
-1.4075e-06
9.96168e-11
-1.68775e-09
4.05967e-07
-5.70827e-07
-5.34307e-07
1.10513e-06
1.41011e-06
-1.41225e-06
2.14648e-09
1.11766e-06
-1.10257e-06
-3.22091e-09
1.07617e-06
-9.23688e-07
6.57699e-07
1.40865e-06
-1.41005e-06
1.39714e-09
1.41684e-06
-1.4071e-06
-1.06218e-06
3.60898e-08
-1.0658e-06
1.06379e-06
2.00623e-09
1.03535e-06
-1.06033e-06
2.28841e-08
1.40279e-06
-1.07696e-06
1.04172e-06
-3.80351e-08
1.41455e-06
-1.41284e-06
-1.7178e-09
1.10071e-06
-1.05299e-06
-4.7722e-08
1.40994e-06
-8.59509e-10
-1.41069e-06
-1.04349e-06
3.14001e-09
1.31187e-07
8.0079e-07
-9.31977e-07
-1.39852e-06
1.39697e-06
1.54406e-09
1.40765e-06
5.04176e-09
-8.90976e-07
-1.85631e-07
1.04316e-08
1.40336e-06
1.4121e-06
-1.41548e-06
3.37603e-09
1.41042e-06
-2.58589e-09
-1.40598e-06
-1.09765e-06
-1.85949e-07
1.41282e-06
2.99172e-09
1.50351e-06
-3.09862e-07
-8.79295e-09
1.41157e-06
-1.40278e-06
1.41078e-06
1.32175e-09
-1.40058e-06
2.06585e-09
-1.40435e-06
-1.031e-08
-2.65147e-09
1.39259e-06
-1.38994e-06
1.85654e-09
1.41091e-06
1.41703e-06
-1.4066e-06
-1.41241e-06
-4.13926e-09
1.07843e-06
-1.52499e-09
1.06842e-06
-5.37812e-08
-1.01463e-06
1.46907e-08
1.05373e-06
-1.39463e-06
1.39198e-06
-1.41216e-06
-3.11039e-09
8.96478e-07
1.85652e-07
-5.07111e-09
1.09247e-06
-1.0874e-06
-9.03893e-07
-7.56596e-07
8.87782e-07
-1.17876e-06
1.47606e-07
1.03115e-06
1.41028e-06
1.09809e-09
-1.41195e-06
1.42666e-08
1.40423e-06
1.40821e-06
-1.40843e-06
2.22637e-10
1.41129e-06
-1.40706e-06
-4.22817e-09
-1.41316e-06
1.01261e-09
-2.11031e-09
-1.06684e-06
1.06895e-06
2.2856e-10
1.41283e-06
-9.79582e-07
2.87146e-07
-1.41139e-06
1.41056e-06
8.30484e-10
-1.39655e-06
1.39485e-06
1.70403e-09
1.35158e-08
1.1504e-06
-1.11668e-06
8.46862e-07
-2.11178e-08
-7.52776e-09
1.41237e-06
-1.40484e-06
-1.2582e-06
6.87372e-07
1.40979e-06
1.24987e-09
-1.41158e-06
1.4112e-06
3.71585e-09
-1.31849e-06
1.23217e-08
1.30617e-06
2.27601e-09
-1.39883e-06
1.4085e-06
-1.40702e-06
-1.4783e-09
-4.48535e-08
1.41712e-06
-1.37227e-06
-2.16045e-09
-2.9061e-07
1.32642e-06
-1.03581e-06
-1.06218e-06
-1.16601e-06
1.40938e-06
-7.30459e-10
1.25985e-08
1.40424e-06
1.37539e-06
1.42304e-06
-1.42262e-06
-4.15456e-10
9.90971e-10
-1.07049e-06
1.0695e-06
-1.41023e-06
1.40927e-06
9.66365e-10
2.88681e-08
-1.06347e-06
1.0346e-06
1.41208e-06
-1.41154e-06
-5.36703e-10
-1.09358e-06
1.08851e-06
1.40794e-06
-1.40684e-06
-1.10036e-09
3.97318e-09
1.40731e-06
-1.77621e-08
1.4154e-06
-1.41102e-06
1.23079e-08
-1.03965e-06
1.41106e-06
-1.4108e-06
-2.59787e-10
1.41033e-06
8.19948e-10
-1.41088e-06
1.40308e-06
2.93408e-09
-1.40602e-06
3.43222e-10
1.41122e-06
-1.40725e-06
-3.62346e-09
-1.06908e-06
1.0727e-06
7.58887e-07
-1.1157e-06
3.56812e-07
-2.34371e-07
-1.08412e-06
-1.03827e-06
-2.31043e-07
-9.0963e-07
-1.40951e-06
8.28001e-09
1.40123e-06
-1.07543e-06
1.06908e-06
6.35483e-09
-3.26487e-07
-8.63297e-07
-1.40868e-06
1.25861e-06
-1.40579e-06
1.4083e-06
-2.51376e-09
-1.17359e-06
1.15793e-07
1.0578e-06
1.12462e-06
-8.63407e-07
-2.61212e-07
-1.41082e-06
2.8841e-09
1.40793e-06
1.07085e-06
-1.05709e-06
3.00444e-09
1.40549e-06
-1.41091e-06
1.45914e-09
1.40968e-06
1.40938e-06
4.65214e-09
-2.45093e-10
-1.41052e-06
-4.7112e-09
-1.40668e-06
-1.40723e-06
1.06999e-06
-1.05767e-06
-6.0986e-09
3.01802e-07
9.32347e-07
-9.61472e-07
9.61472e-07
1.24162e-08
1.40461e-06
-1.59924e-06
-1.30218e-06
1.30317e-06
1.41136e-06
1.06874e-06
-1.06041e-06
-1.40928e-06
1.40457e-06
-1.19138e-06
1.22025e-06
1.40824e-06
-1.407e-06
-1.23824e-09
1.75707e-09
1.40967e-06
-1.42619e-06
1.07326e-06
-1.07688e-06
-1.40881e-06
2.41434e-09
5.31741e-07
1.4123e-06
-1.41059e-06
-1.71445e-09
-1.41135e-06
1.40832e-06
-1.40715e-06
-1.17326e-09
-1.40811e-06
-1.40135e-09
1.405e-06
-1.40068e-06
-1.07671e-06
1.29651e-06
1.40709e-06
-1.40665e-06
-4.41053e-10
-2.50102e-09
1.40558e-06
-1.07543e-06
9.32586e-07
-1.00982e-06
7.72328e-08
-1.73637e-06
1.73637e-06
1.4107e-06
1.41097e-06
-3.59167e-09
2.41862e-09
-1.41039e-06
1.41552e-06
-5.12811e-09
1.40789e-06
-1.4067e-06
-1.18873e-09
-1.16831e-06
1.11242e-06
4.45307e-09
1.40712e-06
-1.41076e-06
3.85872e-09
1.4069e-06
-1.40655e-06
1.40957e-06
-1.40769e-06
-1.08024e-06
-1.4096e-06
4.78503e-09
1.40481e-06
-1.08151e-06
-3.11233e-09
1.05599e-06
-1.06361e-06
7.61832e-09
1.40603e-06
-1.40721e-06
1.18147e-09
2.68333e-08
-1.40959e-06
1.40722e-06
2.37018e-09
1.40908e-06
-1.03342e-06
-1.02647e-06
-1.70222e-08
1.4105e-06
-1.4105e-06
-7.25226e-09
1.07179e-06
-1.40968e-06
1.40762e-06
-1.40643e-06
-1.18882e-09
1.41022e-06
-7.94303e-09
-1.40835e-06
-1.04891e-06
-1.28324e-07
-1.07808e-06
8.41771e-07
-9.40703e-07
9.89316e-08
-2.09998e-07
-9.10537e-07
1.12054e-06
1.40497e-06
-1.40121e-06
9.1462e-07
-1.0641e-06
-3.10671e-09
-1.40771e-06
1.40839e-06
-1.40722e-06
-1.17111e-09
1.08223e-06
-1.08798e-06
-2.97159e-07
-1.96971e-07
4.9413e-07
-1.12208e-06
1.13088e-06
1.08648e-06
-1.07179e-06
-4.2578e-09
-1.05352e-06
1.05778e-06
-5.69823e-09
-1.04531e-06
1.05101e-06
3.636e-09
-1.0977e-06
1.09406e-06
1.01231e-08
-1.10154e-06
1.09142e-06
5.35456e-09
-1.07848e-06
1.07313e-06
-1.7697e-09
-1.05613e-06
1.0579e-06
-1.44598e-09
-1.05543e-06
1.05687e-06
6.34016e-07
-4.2725e-07
-2.06766e-07
9.36216e-07
7.03682e-09
1.40533e-06
1.03031e-06
-1.03754e-06
7.22584e-09
3.31084e-09
-1.40782e-06
1.40451e-06
1.41152e-06
-1.41152e-06
1.39282e-06
-8.98181e-11
-1.39273e-06
-4.83736e-09
-1.40444e-06
1.40751e-06
-1.40628e-06
-1.23643e-09
-8.74828e-07
-1.14854e-06
-2.5055e-08
9.23326e-07
1.77387e-07
1.41043e-06
-1.40842e-06
-2.01029e-09
-1.0736e-06
1.11729e-06
4.73362e-09
1.40649e-06
-7.74388e-07
-4.83812e-07
1.11317e-08
1.00964e-06
-1.02077e-06
-7.21473e-07
-1.2298e-07
-2.42007e-07
-1.48631e-07
3.90638e-07
1.06041e-06
1.06058e-06
1.1067e-06
1.10695e-06
1.09933e-06
1.08422e-06
-5.02225e-09
-1.06257e-06
1.06759e-06
1.06367e-06
-1.58961e-09
-4.16799e-07
1.40798e-06
-1.40467e-06
-3.51335e-08
1.13326e-06
-1.41197e-06
-9.63465e-07
1.19397e-06
1.39128e-06
7.50167e-10
-1.39203e-06
1.41339e-06
-2.88794e-09
-1.41033e-06
5.14869e-09
1.40519e-06
-1.06296e-06
-1.06684e-06
1.06673e-06
-1.07175e-06
-9.70467e-07
1.17132e-06
-2.00857e-07
-2.54753e-09
-1.40705e-06
7.35314e-07
-9.16543e-07
2.31967e-09
-1.40934e-06
-1.40765e-06
-3.74306e-07
-5.49382e-07
-1.40514e-06
-2.67672e-09
1.07931e-06
3.36857e-07
8.23767e-07
1.40613e-06
-1.40504e-06
-1.08934e-09
1.07092e-06
-7.08217e-07
-3.62702e-07
-5.10584e-07
2.68577e-07
-5.92335e-07
1.27971e-06
-5.13001e-07
1.06582e-06
-5.52816e-07
5.65331e-10
1.40954e-06
-1.39984e-06
1.40712e-06
-1.40794e-06
8.1926e-10
-7.96794e-07
3.39211e-07
4.57584e-07
-4.6172e-09
-1.0623e-06
1.06691e-06
1.4734e-06
-6.50655e-07
-8.22741e-07
9.62083e-10
1.39186e-06
-3.06693e-07
-4.90101e-07
-1.02855e-06
1.03968e-06
8.78323e-07
5.78933e-08
-1.02366e-06
-2.08571e-09
-1.06336e-06
1.06545e-06
1.0974e-06
-1.06427e-06
-6.52696e-07
-2.4867e-07
9.01366e-07
-1.40501e-06
1.40543e-06
-4.16521e-10
-1.0374e-06
1.04971e-06
1.40646e-06
-1.40739e-06
-9.40065e-07
-2.1407e-08
-1.41707e-06
1.41175e-06
-7.33943e-07
1.05272e-09
1.40725e-06
1.22677e-06
-6.77955e-07
-5.48816e-07
1.03709e-06
-1.9532e-07
1.16137e-06
-1.51734e-07
1.06525e-06
-1.06987e-06
1.40465e-06
-1.40465e-06
3.91662e-12
1.0658e-06
-1.06789e-06
1.29225e-09
-1.40387e-06
1.40257e-06
-5.91811e-07
-1.42132e-07
4.3381e-09
-1.08104e-06