/*--------------------------------*- C++ -*----------------------------------*\
  =========                 |
  \\      /  F ield         | OpenFOAM: The Open Source CFD Toolbox
   \\    /   O peration     | Website:  https://openfoam.org
    \\  /    A nd           | Version:  12
     \\/     M anipulation  |
\*---------------------------------------------------------------------------*/
FoamFile
{
    format      ascii;
    class       volVectorField;
    location    "0.01";
    object      U;
}
// * * * * * * * * * * * * * * * * * * * * * * * * * * * * * * * * * * * * * //

dimensions      [0 1 -1 0 0 0 0];

internalField   nonuniform List<vector> 
4428
(
(7.6072e-05 2.89039e-05 4.91896e-17)
(-7.69276e-05 3.19303e-05 -4.38328e-17)
(-7.17634e-05 3.3488e-05 0)
(-7.27201e-05 3.12301e-05 0)
(6.97976e-05 5.91193e-05 3.95927e-17)
(7.5866e-05 6.20167e-05 1.66407e-21)
(-7.03671e-05 4.2784e-05 0)
(-7.76998e-05 2.75422e-05 7.10044e-17)
(7.65126e-05 3.2437e-05 -1.20789e-16)
(8.02925e-05 2.26023e-05 4.82727e-17)
(-7.39211e-05 2.45799e-05 -8.40596e-17)
(7.00375e-05 3.28021e-05 -8.57726e-17)
(-8.17545e-05 1.50892e-05 -9.87686e-17)
(-2.3856e-05 8.91258e-05 -4.64677e-17)
(7.49939e-05 2.88913e-05 0)
(7.01912e-05 2.46699e-05 0)
(8.02649e-05 2.95722e-05 0)
(-7.39367e-05 2.46046e-05 0)
(-8.20794e-05 1.49002e-05 0)
(7.68227e-05 2.79063e-05 0)
(2.66901e-05 2.20474e-05 -2.17281e-16)
(-7.68135e-05 2.92397e-05 -8.61796e-17)
(-7.22121e-05 3.21153e-05 0)
(-8.12198e-05 2.51434e-05 0)
(-7.63579e-05 2.91334e-05 1.09902e-17)
(-7.28128e-05 2.54704e-05 0)
(-7.38641e-05 4.10037e-05 5.01247e-17)
(7.57172e-05 2.19513e-05 1.00778e-16)
(7.20754e-05 3.5641e-05 0)
(-8.3361e-05 1.70613e-05 0)
(7.86242e-05 1.55946e-05 0)
(-7.76414e-05 2.88149e-05 -8.9333e-17)
(7.90012e-05 2.53885e-05 -4.36564e-17)
(-8.13128e-05 4.13651e-05 -1.34542e-16)
(-3.14617e-06 0.000105413 2.27824e-17)
(-7.71532e-05 3.04023e-05 9.69267e-17)
(-7.71912e-05 4.03117e-05 -2.14705e-21)
(7.0184e-05 9.46701e-05 6.16125e-18)
(-8.3893e-06 9.11981e-05 -1.27175e-17)
(-7.28692e-05 3.2563e-05 0)
(7.80208e-05 2.79529e-05 0)
(6.71398e-05 1.94727e-05 0)
(7.24019e-05 2.41986e-05 4.48264e-17)
(-7.97627e-05 2.48962e-05 8.05326e-17)
(7.63626e-05 2.10295e-05 0)
(6.08232e-05 2.34537e-05 0)
(7.10196e-05 6.98087e-05 -4.83923e-17)
(-7.19197e-05 3.66269e-05 9.8518e-17)
(-7.41497e-05 3.26695e-05 1.08856e-16)
(-7.64646e-05 3.43182e-05 0)
(7.67641e-05 3.31982e-05 0)
(6.57552e-05 3.55932e-05 9.12331e-17)
(8.00937e-05 2.35069e-05 -4.42865e-17)
(6.66796e-05 3.63333e-05 0)
(6.97566e-05 3.10116e-05 -6.77905e-18)
(4.88113e-05 2.14649e-05 0)
(7.08529e-05 3.46867e-05 -4.50986e-17)
(-7.15977e-05 2.10718e-05 0)
(6.33312e-05 6.82394e-05 8.87304e-17)
(7.49702e-05 2.47124e-05 -8.82689e-17)
(7.91682e-05 3.04737e-05 8.10363e-17)
(-8.01964e-05 2.52864e-05 0)
(6.87695e-05 2.63835e-05 1.35767e-16)
(-7.75802e-05 2.87706e-05 4.49556e-17)
(-7.70404e-05 3.04961e-05 0)
(7.10176e-05 3.11271e-05 0)
(-7.88758e-05 2.52011e-05 8.39759e-17)
(-7.30346e-05 3.17557e-05 -9.01168e-17)
(7.3709e-05 2.57038e-05 -8.83538e-17)
(-7.76312e-05 3.31907e-05 -1.75514e-16)
(-7.91829e-05 2.39738e-05 -4.44295e-17)
(7.3027e-05 3.37631e-05 1.0313e-16)
(8.19057e-05 3.74886e-05 2.81528e-17)
(-7.15187e-05 3.08261e-05 2.16758e-17)
(7.56417e-05 2.68253e-05 9.53686e-17)
(-1.03909e-06 0.000102625 -8.88923e-17)
(8.1175e-05 3.77088e-05 0)
(8.35951e-05 3.48348e-05 0)
(-7.17516e-05 4.30616e-05 -5.72963e-17)
(5.28875e-05 2.35832e-05 -1.97484e-21)
(7.08233e-05 3.66467e-05 -9.58e-17)
(-7.83212e-05 2.43161e-05 0)
(7.1063e-05 3.52852e-05 -8.78096e-17)
(7.38905e-05 3.26624e-05 -8.34463e-17)
(7.93595e-05 2.88654e-05 1.54368e-16)
(-8.64422e-05 2.33658e-05 -1.23517e-16)
(-1.24218e-05 0.000118543 5.58412e-17)
(-7.8203e-05 2.882e-05 0)
(-7.73422e-05 2.91693e-05 -4.65734e-17)
(7.04402e-05 3.11908e-05 9.92928e-18)
(7.59913e-05 2.19625e-05 4.05747e-17)
(7.76818e-05 2.78781e-05 -7.72886e-17)
(-7.87235e-05 3.13108e-05 0)
(-8.16559e-05 3.08455e-05 0)
(-7.71712e-05 3.05979e-05 4.7609e-17)
(-7.43032e-05 3.23309e-05 8.10475e-17)
(8.06916e-05 3.14746e-05 5.50592e-17)
(-8.25128e-05 3.17302e-05 -5.81493e-17)
(-7.93362e-05 2.3655e-05 4.50392e-17)
(7.20898e-05 4.14669e-05 0)
(7.13165e-05 3.3534e-05 -1.09186e-17)
(7.37328e-05 2.91699e-05 0)
(7.56866e-05 2.62769e-05 0)
(6.85741e-05 2.64872e-05 -9.11673e-17)
(7.16343e-05 3.54308e-05 -5.02916e-17)
(6.92226e-05 3.26742e-05 1.15602e-21)
(7.51323e-05 3.09498e-05 9.2302e-17)
(-7.74724e-05 3.82369e-05 -5.93872e-17)
(8.20412e-05 3.10057e-05 -5.85954e-17)
(7.10273e-05 3.81452e-05 0)
(7.48777e-05 2.38877e-05 7.98717e-17)
(7.45217e-05 2.85103e-05 -9.44736e-17)
(-7.19284e-05 3.04244e-05 1.32354e-21)
(7.11325e-05 2.70162e-05 8.04873e-17)
(-4.47209e-05 2.77656e-05 5.6034e-17)
(-7.95181e-05 2.34728e-05 8.74072e-17)
(-1.70233e-05 9.98263e-05 0)
(3.10958e-05 2.46758e-05 2.54484e-17)
(-8.00192e-05 2.58201e-05 4.30483e-17)
(8.21781e-05 3.37496e-05 -5.47337e-17)
(8.39481e-05 3.21191e-05 1.02586e-16)
(-7.18131e-05 4.34441e-05 1.17013e-16)
(5.15676e-05 8.44e-05 -9.54888e-17)
(7.85633e-05 2.59099e-05 -1.47246e-16)
(2.21058e-06 0.000106091 8.66925e-17)
(-7.76765e-05 2.88238e-05 0)
(-7.86888e-05 2.55837e-05 -1.32037e-16)
(7.14565e-05 3.11115e-05 4.82585e-17)
(-7.69667e-05 3.1617e-05 -1.47479e-16)
(-7.7529e-05 3.02826e-05 4.68851e-17)
(-7.92494e-05 2.4219e-05 -9.07535e-17)
(-7.5652e-05 3.14178e-05 0)
(7.79066e-05 3.09014e-05 1.08694e-16)
(7.30257e-05 2.86442e-05 0)
(7.42113e-05 2.8916e-05 0)
(7.9395e-05 3.42806e-05 3.1695e-21)
(8.26324e-05 3.43919e-05 -1.18173e-16)
(-7.94442e-05 2.38297e-05 -8.84525e-17)
(-7.75666e-05 2.95043e-05 -8.90163e-17)
(-7.67102e-05 3.10984e-05 6.98105e-17)
(-7.78328e-05 3.86689e-05 -5.9994e-17)
(-7.74487e-05 2.80717e-05 -4.69199e-17)
(7.31924e-05 2.9519e-05 0)
(7.38599e-05 2.95782e-05 -9.67167e-17)
(7.67236e-05 2.8429e-05 0)
(7.30393e-05 2.80881e-05 4.69276e-17)
(8.05977e-05 3.87469e-05 6.23066e-17)
(-1.6858e-06 7.41635e-05 -4.43236e-17)
(8.2979e-05 2.01501e-05 1.40102e-16)
(-2.168e-06 0.000105344 2.20374e-17)
(-7.76198e-05 2.88847e-05 -9.67575e-17)
(-4.99477e-05 2.31319e-05 4.86342e-17)
(7.4667e-05 2.19478e-05 -4.72373e-21)
(8.38278e-05 2.79948e-05 -1.20575e-16)
(-7.74736e-05 3.02505e-05 1.41414e-16)
(7.81271e-05 2.8645e-05 0)
(7.23738e-05 4.81029e-05 -8.59015e-17)
(7.64599e-05 2.19206e-05 -4.59985e-17)
(7.78221e-05 2.57342e-05 -8.66962e-17)
(-7.81884e-05 2.4676e-05 -4.42459e-17)
(-7.69991e-05 3.21462e-05 9.47859e-17)
(7.46142e-05 2.9759e-05 0)
(8.19959e-05 2.43639e-05 0)
(-2.69889e-05 1.20313e-05 -1.05324e-16)
(-8.04743e-05 3.62352e-05 5.79852e-17)
(-7.95691e-05 2.4158e-05 0)
(-7.72139e-05 2.82897e-05 0)
(8.19814e-05 2.40643e-05 0)
(-7.73521e-05 2.94399e-05 9.50707e-22)
(-7.72716e-05 3.36743e-05 4.54313e-17)
(-7.85993e-05 2.50901e-05 -4.549e-17)
(7.69631e-05 3.08651e-05 1.94792e-21)
(-7.75483e-05 2.89275e-05 0)
(6.86481e-05 3.00077e-05 0)
(7.10551e-05 9.2675e-05 -5.64387e-18)
(-8.0874e-05 3.64024e-05 1.11097e-16)
(7.79374e-05 2.75527e-05 0)
(6.71851e-05 3.61117e-05 1.0407e-16)
(7.35731e-05 3.30545e-05 1.05694e-16)
(-8.06905e-05 3.61915e-05 5.54418e-17)
(-1.34447e-05 0.000103915 -3.31556e-21)
(-7.49949e-05 3.13391e-05 8.49077e-17)
(-7.80649e-05 2.7255e-05 9.30905e-17)
(7.24183e-05 2.69041e-05 0)
(-7.75509e-05 2.89488e-05 1.45768e-16)
(-7.61479e-05 3.66413e-05 -4.61775e-17)
(7.63333e-05 2.98645e-05 0)
(-7.73549e-05 3.01643e-05 0)
(6.74898e-05 2.68511e-05 1.66622e-16)
(7.87398e-05 3.55513e-05 0)
(7.50668e-05 2.71734e-05 0)
(7.8199e-05 3.99691e-05 1.2535e-17)
(7.62799e-05 2.65232e-05 0)
(7.56997e-05 3.44128e-05 -1.78408e-16)
(-7.42741e-05 3.68248e-05 0)
(-7.42696e-05 3.66489e-05 -8.77154e-17)
(-7.41817e-05 3.65137e-05 1.3139e-16)
(-7.38364e-05 3.57964e-05 4.3103e-17)
(0.000105453 6.1035e-05 7.2144e-17)
(-2.50903e-05 0.000109918 0)
(7.62711e-05 3.46953e-05 1.03669e-16)
(-7.80128e-05 2.82685e-05 -9.41233e-17)
(6.26394e-05 3.31696e-05 -9.22937e-17)
(-7.86074e-05 2.48947e-05 0)
(6.94306e-05 2.80294e-05 -8.5661e-17)
(7.54602e-05 2.64531e-05 -1.4455e-18)
(-7.72192e-05 2.96183e-05 4.52275e-17)
(-1.72374e-05 0.000119806 -8.62807e-17)
(-4.0593e-05 0.000103945 5.424e-18)
(5.11124e-05 2.64721e-05 0)
(7.78603e-05 3.4106e-05 0)
(8.82065e-05 2.87384e-05 0)
(7.66556e-05 3.22737e-05 2.87326e-21)
(-7.78936e-05 2.73472e-05 0)
(7.53813e-05 2.76404e-05 0)
(-7.51109e-05 3.60438e-05 -6.79391e-17)
(-7.44965e-05 3.55452e-05 8.91301e-17)
(4.23392e-06 0.0001051 -8.95705e-17)
(-7.38971e-05 3.04916e-05 9.66539e-17)
(-7.39842e-05 3.63513e-05 -2.1998e-17)
(7.64175e-05 3.2141e-05 9.47462e-17)
(8.45568e-05 2.84488e-05 -2.98316e-17)
(-7.67096e-05 2.99679e-05 8.99475e-17)
(8.13067e-05 3.71462e-05 0)
(-7.43258e-05 3.64236e-05 0)
(-7.74737e-05 2.90337e-05 0)
(-7.74961e-05 2.98635e-05 -5.27291e-17)
(7.49186e-05 2.68203e-05 -9.36204e-17)
(7.14346e-05 3.06079e-05 1.86925e-21)
(-7.72491e-05 3.01106e-05 0)
(-7.7472e-05 2.82151e-05 4.76844e-17)
(-4.81034e-05 9.57516e-05 0)
(6.60858e-05 4.41802e-05 0)
(1.41535e-05 0.000116464 4.17927e-17)
(7.25035e-05 3.06286e-05 2.78678e-17)
(-7.50562e-05 3.50635e-05 0)
(-7.48029e-05 3.57789e-05 0)
(-7.49624e-05 3.55206e-05 9.12801e-17)
(-7.51085e-05 3.52541e-05 -9.02891e-17)
(-7.84534e-05 2.54207e-05 1.44409e-16)
(-7.86007e-06 2.1994e-05 2.49218e-17)
(-8.35965e-05 3.35274e-05 -2.86166e-17)
(-7.26513e-05 3.5709e-05 3.02478e-17)
(7.45918e-05 3.01706e-05 1.08505e-17)
(-7.77634e-05 2.75995e-05 -4.66825e-17)
(-2.11154e-05 7.95228e-05 -4.90578e-17)
(-7.678e-05 3.69055e-05 9.1818e-17)
(-7.80933e-05 2.79582e-05 9.351e-17)
(8.93702e-05 5.9499e-05 0)
(-8.68592e-06 7.81302e-05 0)
(-8.11118e-05 3.31469e-05 2.92929e-21)
(7.35881e-05 2.92169e-05 9.91259e-17)
(7.59562e-05 3.3059e-05 -5.12374e-17)
(-7.45048e-05 3.54657e-05 8.82106e-17)
(6.49479e-05 2.41225e-05 -6.36853e-17)
(1.38599e-05 9.10059e-06 5.23363e-17)
(-7.47511e-05 3.55329e-05 -1.773e-16)
(-2.53299e-07 0.000104847 0)
(-8.87941e-05 2.9902e-05 -1.77884e-17)
(-7.55002e-05 3.50172e-05 -1.02699e-16)
(-7.53458e-05 3.52227e-05 9.21543e-17)
(-2.69215e-05 1.3368e-05 1.05344e-16)
(-7.74361e-05 2.83897e-05 0)
(8.45151e-05 1.60093e-05 5.96579e-17)
(-7.48487e-05 3.51782e-05 -4.54831e-17)
(-7.69488e-05 2.97986e-05 -4.85323e-17)
(8.13586e-05 2.91851e-05 0)
(-7.49244e-05 3.54048e-05 0)
(-5.2386e-05 0.000113986 6.6576e-17)
(-7.96126e-05 2.70091e-05 -8.91074e-17)
(7.56009e-05 2.58402e-05 0)
(7.83632e-05 3.84528e-05 1.15026e-16)
(7.47969e-05 2.98592e-05 5.97118e-18)
(-1.45107e-05 8.48215e-05 1.25338e-16)
(-7.75024e-05 2.92815e-05 0)
(7.34296e-05 3.12726e-05 9.60884e-17)
(7.58926e-05 2.842e-05 -1.2782e-16)
(-7.75882e-05 2.80367e-05 9.42284e-17)
(8.27513e-05 4.12158e-05 0)
(1.3425e-05 8.45992e-06 -5.35718e-17)
(-8.79232e-05 3.66276e-05 -1.31987e-22)
(-1.23495e-05 0.000105165 4.67229e-17)
(7.51315e-05 2.8559e-05 0)
(-7.8285e-05 2.58647e-05 -1.45092e-16)
(7.01422e-05 3.95502e-05 1.90762e-16)
(6.86899e-05 3.8965e-05 -4.4251e-17)
(7.5824e-05 2.99557e-05 -6.44772e-18)
(7.66304e-05 2.62435e-05 -6.12264e-17)
(7.65694e-05 3.04059e-05 9.42965e-17)
(7.5997e-05 2.83576e-05 0)
(-8.51831e-05 2.37055e-05 6.96321e-17)
(-8.0159e-05 2.62382e-05 -9.07342e-17)
(-7.56924e-05 3.4223e-05 -3.6237e-19)
(7.17482e-05 3.55695e-05 0)
(7.09032e-05 3.22193e-05 1.0411e-16)
(2.46953e-05 7.93016e-06 1.12505e-16)
(-7.69275e-05 2.86583e-05 9.48282e-17)
(-7.46153e-05 3.51045e-05 1.00856e-16)
(-7.66377e-05 3.5458e-05 0)
(-4.7004e-05 0.000111073 9.54252e-17)
(-7.77872e-05 2.82135e-05 2.86391e-21)
(7.23245e-05 2.82234e-05 5.56234e-17)
(-7.73787e-05 2.84967e-05 0)
(-7.52445e-05 3.49776e-05 -5.76064e-18)
(-7.51725e-05 3.52769e-05 0)
(-7.49721e-05 3.52813e-05 -9.01622e-17)
(-7.70718e-05 3.0223e-05 0)
(-1.21435e-05 0.000116746 -5.79993e-17)
(4.83263e-05 2.87817e-05 -1.67101e-16)
(7.2952e-05 3.99582e-05 6.09113e-17)
(-7.75159e-05 2.82876e-05 4.75131e-17)
(7.39476e-05 2.93387e-05 0)
(7.92235e-05 3.92956e-05 -6.13815e-17)
(-1.30412e-05 0.000112652 -9.23655e-17)
(4.63085e-05 1.56115e-05 -1.08588e-16)
(7.4922e-05 3.0819e-05 0)
(7.58409e-05 3.44241e-05 0)
(7.45871e-05 3.16729e-05 -9.09886e-17)
(-7.81045e-05 2.63456e-05 0)
(-7.69707e-05 2.94088e-05 9.53309e-17)
(-1.93592e-05 0.000124289 -2.99523e-18)
(-8.15859e-05 3.77761e-05 -4.92205e-17)
(-7.09561e-05 2.80298e-05 2.96259e-17)
(7.37312e-05 2.85456e-05 1.88811e-16)
(-5.46278e-05 0.000168101 -7.08451e-17)
(0.000126142 4.98028e-05 -9.59658e-17)
(7.16369e-05 3.53356e-05 -1.03098e-16)
(-7.64148e-05 2.98689e-05 4.67661e-17)
(-7.66505e-05 3.60615e-05 -5.90571e-18)
(-7.46065e-05 3.56361e-05 -9.18999e-17)
(7.46844e-05 2.85284e-05 1.01742e-16)
(-7.73426e-05 2.85086e-05 0)
(-7.73571e-05 2.85486e-05 4.80533e-17)
(-8.90784e-05 2.97811e-05 7.32117e-17)
(-7.7538e-05 3.73327e-05 0)
(-7.62599e-05 3.55342e-05 0)
(7.69652e-05 3.81702e-05 -5.97895e-17)
(7.11324e-05 2.67995e-05 0)
(-7.74758e-05 2.89212e-05 0)
(7.2454e-05 2.82012e-05 0)
(-7.50321e-05 3.49919e-05 5.73838e-18)
(-7.60594e-05 3.44356e-05 3.66027e-19)
(7.07682e-05 2.15846e-05 0)
(7.54713e-05 2.76182e-05 9.35464e-17)
(4.30235e-07 0.000106289 0)
(7.74035e-05 2.37456e-05 0)
(-7.76595e-05 2.86795e-05 2.38868e-17)
(-7.8041e-05 2.77245e-05 -1.46211e-16)
(6.79801e-06 4.57244e-05 0)
(-7.67287e-05 2.97002e-05 -9.38024e-17)
(-8.31331e-05 1.81422e-05 4.48028e-17)
(-8.59164e-05 3.20456e-05 -2.28324e-21)
(-8.17536e-05 2.71556e-05 -1.18041e-16)
(-8.91536e-05 2.90802e-05 7.33097e-17)
(-7.54872e-05 3.6467e-05 0)
(-7.81463e-05 2.68813e-05 9.80202e-17)
(-7.67113e-05 2.94698e-05 4.86404e-17)
(7.54759e-05 2.8715e-05 0)
(-7.63886e-05 2.55235e-05 7.88301e-17)
(-7.71998e-05 2.85018e-05 -1.30331e-16)
(-2.55726e-06 0.00010102 0)
(-7.44659e-05 3.47713e-05 -1.36004e-16)
(-7.65364e-05 3.28452e-05 0)
(-7.75971e-05 2.87984e-05 0)
(7.66738e-05 2.77497e-05 9.85068e-17)
(-7.7383e-05 2.83298e-05 4.91689e-17)
(6.76661e-05 2.35076e-05 1.04163e-16)
(7.58276e-05 3.07794e-05 -9.89013e-17)
(-5.38709e-05 2.66575e-05 0)
(-8.15877e-05 2.74432e-05 0)
(-7.68144e-05 2.96853e-05 0)
(7.50427e-05 2.92328e-05 -1.03158e-16)
(7.91056e-05 3.64674e-05 0)
(7.60356e-05 2.83525e-05 0)
(-8.22961e-05 3.56673e-05 -1.45183e-16)
(1.50572e-05 0.000100434 1.05718e-16)
(-7.56994e-05 3.58804e-05 9.32503e-17)
(8.12e-05 2.48391e-05 -1.04555e-16)
(-2.02528e-06 5.36396e-05 -3.00406e-17)
(-7.72032e-05 3.01888e-05 0)
(-7.67029e-05 3.28796e-05 1.45373e-16)
(-7.33574e-05 3.56649e-05 -8.74598e-17)
(1.00482e-05 7.95502e-05 5.25164e-17)
(8.26808e-05 1.44479e-05 0)
(8.41044e-05 2.03448e-05 5.563e-17)
(7.24216e-05 3.14611e-05 8.62289e-17)
(-1.5113e-05 1.14534e-05 1.02199e-16)
(-7.72571e-05 2.83331e-05 -4.38382e-17)
(7.57837e-05 3.01404e-05 0)
(4.70359e-05 1.78945e-05 0)
(6.6261e-05 1.96259e-05 1.87437e-16)
(-7.69202e-05 2.97073e-05 0)
(7.93664e-05 2.42672e-05 -5.20031e-17)
(-8.38086e-05 2.11291e-05 6.11523e-17)
(-7.75699e-05 2.95575e-05 4.64662e-17)
(7.33595e-05 2.93765e-05 -9.46506e-17)
(-9.15631e-05 3.40592e-05 -6.59474e-17)
(-7.57451e-05 3.27096e-05 8.96708e-17)
(-8.4203e-05 3.87649e-05 4.89863e-17)
(-5.75394e-05 2.30575e-05 -5.28341e-17)
(-7.76055e-05 2.92847e-05 0)
(-7.73242e-05 2.9383e-05 0)
(-6.65655e-06 3.90048e-05 0)
(2.65427e-06 0.000100611 -1.21719e-16)
(-8.13267e-05 2.78401e-05 0)
(-7.75957e-05 3.8626e-05 -4.23045e-17)
(7.51591e-05 2.83394e-05 1.82429e-16)
(7.1943e-05 3.04632e-05 -5.39169e-17)
(7.54982e-05 2.59034e-05 1.84061e-16)
(7.62089e-05 3.07954e-05 -2.66325e-17)
(7.52786e-05 2.85833e-05 -2.68754e-21)
(-7.65291e-05 3.09934e-05 -2.38262e-17)
(-7.67559e-05 3.01394e-05 -4.67353e-17)
(-6.35229e-06 0.000118602 2.8972e-18)
(-7.70475e-05 2.97534e-05 -9.47132e-17)
(-7.64918e-05 3.21203e-05 -2.49776e-17)
(7.13651e-05 3.11495e-05 0)
(-7.73445e-05 2.97916e-05 -4.7327e-17)
(-8.61276e-05 3.30793e-05 -1.74068e-16)
(-7.62066e-05 3.40795e-05 -6.76025e-18)
(-7.75999e-05 2.89196e-05 0)
(-7.8359e-05 2.46546e-05 2.34482e-17)
(-7.72528e-05 2.86028e-05 -4.78991e-17)
(8.15116e-05 3.60465e-05 -1.01225e-16)
(-7.66047e-05 3.04763e-05 -4.8241e-17)
(1.25383e-05 0.000116642 3.37811e-18)
(7.34672e-05 2.63576e-05 1.18484e-17)
(-2.18695e-06 0.000112668 -9.64422e-17)
(-8.52276e-05 3.78719e-05 1.36934e-16)
(-7.487e-05 2.44494e-05 -1.93276e-16)
(7.51385e-05 2.89192e-05 4.99784e-17)
(-8.52674e-05 3.79366e-05 6.10761e-17)
(1.08608e-05 5.80607e-05 3.93471e-17)
(-7.64873e-05 3.0348e-05 9.60149e-17)
(7.3271e-05 2.45188e-05 8.56803e-17)
(-8.51284e-07 0.000110526 0)
(-1.21268e-06 9.51304e-05 -1.37696e-16)
(-7.67062e-05 3.17918e-05 -7.62513e-17)
(7.45175e-05 2.53531e-05 -2.51984e-17)
(-8.77121e-07 0.000110225 3.83263e-19)
(9.03345e-05 3.59975e-05 4.73679e-17)
(-7.19058e-05 2.92008e-05 1.43211e-16)
(-7.74813e-05 2.94413e-05 -2.4728e-17)
(-7.87508e-05 2.67802e-05 0)
(-7.96495e-05 2.86752e-05 1.11075e-16)
(7.42418e-05 3.02013e-05 -9.81079e-17)
(-7.67955e-05 3.01805e-05 -4.69459e-17)
(7.3622e-05 2.92829e-05 0)
(-1.72328e-07 0.00010966 -9.79031e-17)
(-8.64597e-05 3.22419e-05 5.85701e-17)
(8.64276e-05 7.73337e-05 -1.7766e-16)
(7.6229e-05 2.91112e-05 0)
(-4.81598e-07 0.000109662 0)
(7.81742e-05 3.12782e-05 2.87337e-21)
(3.41366e-07 0.000109313 -9.80185e-17)
(1.73269e-07 0.000109665 1.94913e-16)
(-7.65704e-05 3.0078e-05 2.41754e-17)
(-6.91507e-06 0.000113052 9.58834e-17)
(-2.79526e-07 0.000109259 0)
(-7.01062e-07 0.000109769 9.75556e-17)
(-7.66022e-05 2.9866e-05 0)
(8.92308e-05 4.78599e-05 0)
(3.73065e-07 0.000109482 0)
(-1.6386e-07 0.000109484 -9.76927e-17)
(-7.64729e-05 3.15026e-05 0)
(-4.07023e-07 0.000109549 1.96547e-16)
(-7.74026e-05 2.93861e-05 0)
(-1.55483e-07 0.000109549 -9.81683e-17)
(-7.67058e-05 2.99227e-05 -1.42185e-16)
(-1.83611e-07 0.000109183 0)
(-7.59865e-05 3.15604e-05 4.68981e-17)
(-3.50559e-05 0.000125158 -2.28603e-17)
(8.18388e-05 3.83773e-05 1.21368e-16)
(8.64093e-05 3.20594e-05 0)
(2.16889e-08 0.000109483 7.0444e-21)
(-4.28255e-07 0.000109646 -9.66988e-17)
(-7.87823e-05 2.47247e-05 -4.13076e-17)
(7.31383e-05 3.29569e-05 -9.97798e-17)
(6.34295e-05 2.62503e-05 0)
(7.47078e-05 2.88459e-05 1.50469e-16)
(-7.57805e-08 0.000109495 9.79643e-17)
(-7.64914e-05 2.99556e-05 0)
(-2.71086e-06 0.000110705 9.72682e-17)
(-8.63084e-08 0.000109224 0)
(-1.83379e-07 0.000109406 -9.93616e-17)
(-7.69788e-05 3.00006e-05 0)
(7.554e-05 3.46124e-05 9.46987e-17)
(-7.72341e-05 2.95522e-05 1.30059e-21)
(1.83582e-08 0.000109188 9.83939e-17)
(7.62641e-05 2.80377e-05 -2.03373e-16)
(1.26447e-05 6.27069e-05 0)
(-3.94914e-07 0.000109634 0)
(8.49327e-05 3.93196e-05 7.1109e-17)
(7.6282e-05 2.61754e-05 0)
(-8.51151e-06 0.000117567 0)
(-7.74011e-05 2.924e-05 -1.70851e-16)
(-2.96149e-06 0.000112186 0)
(-7.67959e-05 3.00968e-05 4.73124e-17)
(-6.50203e-05 5.5607e-05 -2.54793e-17)
(-7.64148e-05 3.15262e-05 9.75336e-17)
(2.66089e-08 0.0001093 -1.96232e-16)
(-7.81762e-05 2.94338e-05 2.62647e-17)
(-7.59935e-05 3.16145e-05 9.35818e-17)
(-1.33397e-07 0.000109359 0)
(-2.49754e-07 0.000109185 -9.61456e-17)
(6.97949e-05 2.2881e-05 0)
(3.874e-08 0.000109431 -9.90344e-17)
(7.92787e-08 0.000109308 0)
(-5.17498e-06 0.000113661 9.76136e-17)
(-4.57271e-07 9.56245e-05 -1.10187e-16)
(-7.85714e-05 3.62807e-05 5.69395e-17)
(-1.58142e-06 0.0001109 4.76114e-20)
(5.42862e-05 1.60449e-05 0)
(-8.05371e-05 2.91264e-05 3.87906e-17)
(-7.66927e-05 3.20182e-05 2.2738e-17)
(2.39461e-07 0.000109142 1.96421e-16)
(-4.32932e-07 0.000109564 9.77714e-17)
(-7.82257e-05 3.05621e-05 -2.25996e-16)
(6.88697e-08 0.000109341 9.8296e-17)
(6.76449e-05 2.00428e-05 3.11196e-21)
(-5.65027e-07 0.000109357 9.72865e-17)
(-7.75836e-05 2.94864e-05 0)
(-7.62463e-05 3.07567e-05 2.48393e-17)
(-5.06283e-08 0.000109379 -7.07585e-21)
(7.48939e-05 3.87527e-05 1.01884e-16)
(-7.70751e-05 3.02433e-05 -4.98749e-17)
(-7.59912e-05 3.14363e-05 -4.35987e-17)
(-2.81265e-07 0.000109493 -9.7734e-17)
(7.47704e-05 2.93323e-05 1.70513e-18)
(1.42591e-09 0.000109424 -7.07772e-21)
(-7.80067e-05 2.94118e-05 2.33205e-17)
(3.43853e-07 0.000109216 0)
(-7.73649e-05 2.91724e-05 0)
(-6.44063e-07 0.0001095 -9.77058e-17)
(5.53155e-08 0.000109427 9.80933e-17)
(7.40739e-05 3.11162e-05 -1.18953e-17)
(-7.85343e-05 2.74012e-05 1.06558e-16)
(-5.84277e-07 0.000109376 9.68839e-17)
(1.30618e-07 0.000109193 0)
(-7.65795e-05 3.12031e-05 0)
(-7.62942e-05 3.15038e-05 7.43958e-17)
(-7.92785e-05 2.43156e-05 0)
(-4.09203e-06 6.70269e-05 -5.25265e-17)
(-1.99348e-08 0.000109415 9.83089e-17)
(-7.61213e-05 3.13428e-05 -7.05011e-17)
(-7.64972e-05 3.03964e-05 0)
(-7.62011e-05 2.89036e-05 2.57096e-17)
(-1.00787e-06 0.000109736 9.55432e-17)
(1.02821e-09 0.000109244 -7.11271e-21)
(-7.68944e-05 2.93827e-05 -2.49336e-17)
(4.45078e-05 5.36154e-06 -1.06205e-16)
(-9.81668e-07 0.000109991 -9.72012e-17)
(-3.29059e-07 0.000109543 9.80152e-17)
(1.3083e-07 0.000109274 9.84404e-17)
(-3.60376e-08 0.000109671 -9.70701e-17)
(9.13799e-05 4.65731e-05 -9.31379e-17)
(-6.62768e-07 0.000109371 -9.75324e-17)
(-7.73419e-05 2.9249e-05 0)
(-7.81212e-05 3.18167e-05 0)
(7.54325e-05 3.11195e-05 0)
(-1.72096e-07 0.000109229 -9.87261e-17)
(-7.601e-05 3.15527e-05 1.20342e-16)
(7.47298e-05 2.7583e-05 -7.62136e-17)
(-7.29588e-05 2.96947e-05 1.31598e-16)
(-7.67808e-05 2.99734e-05 -9.54984e-17)
(-7.68697e-05 2.97379e-05 -4.91093e-17)
(-8.29514e-05 3.90131e-05 -4.87176e-17)
(-3.53998e-07 0.00010928 -1.96799e-16)
(2.91251e-07 0.00010925 4.10447e-20)
(-7.65162e-05 3.1989e-05 -2.81306e-17)
(-7.68595e-05 3.06068e-05 2.23066e-17)
(-7.68964e-05 2.97909e-05 -2.4504e-17)
(4.45733e-07 0.000109393 -9.82633e-17)
(7.44001e-08 0.000109249 1.98948e-16)
(-5.43596e-07 0.000109371 -9.84308e-17)
(9.20445e-08 0.000109368 -3.85731e-19)
(-7.68387e-05 3.02745e-05 2.38263e-17)
(-3.94975e-07 0.000109285 0)
(5.23512e-07 0.000109329 -9.88295e-17)
(3.3819e-07 0.000109217 9.83282e-17)
(4.55733e-07 0.000109399 1.70015e-20)
(-7.67281e-05 2.95641e-05 4.95007e-17)
(-6.06709e-07 0.000109972 0)
(-7.7065e-05 2.93057e-05 -9.72927e-17)
(-8.07897e-05 2.89177e-05 0)
(7.53977e-05 2.87563e-05 -1.07886e-16)
(-5.78146e-08 0.000109314 -7.65795e-19)
(7.16074e-05 3.02103e-05 9.59768e-17)
(6.88946e-08 0.000109306 -7.04653e-21)
(-6.56807e-06 0.000112209 0)
(-4.4879e-06 0.000110813 -9.66413e-17)
(-7.72556e-05 2.93862e-05 0)
(-7.76978e-05 2.93161e-05 -4.78452e-17)
(7.61619e-07 0.000109238 0)
(-7.65027e-05 2.95884e-05 -1.03819e-16)
(-7.68462e-05 2.99995e-05 -5.15786e-17)
(7.49524e-05 3.00079e-05 1.03658e-16)
(4.2219e-08 0.000109299 -9.84902e-17)
(-6.34115e-07 0.000109374 -9.85271e-17)
(-7.72499e-05 3.00311e-05 2.69419e-17)
(-1.32148e-07 0.000109307 -9.71435e-17)
(-7.60574e-05 2.90011e-05 1.5111e-16)
(-5.28546e-07 0.000109261 -9.81055e-17)
(1.52086e-07 0.000109325 -7.05744e-21)
(-7.92867e-05 3.69168e-05 -1.14725e-16)
(-7.00001e-07 0.000109358 9.72999e-17)
(7.54567e-05 2.84396e-05 0)
(-7.67387e-05 3.00404e-05 -2.43703e-17)
(-2.98072e-08 0.00010929 1.54654e-18)
(-7.74653e-05 2.9033e-05 4.88729e-17)
(-1.71913e-08 0.000109244 -7.7631e-19)
(-7.68078e-05 2.94704e-05 2.44719e-17)
(-7.40297e-05 2.65579e-05 0)
(2.92321e-07 0.000109344 -7.09394e-21)
(-8.36883e-05 3.53708e-05 1.45936e-16)
(7.44775e-08 0.000109388 9.91624e-17)
(7.15671e-05 3.57049e-05 -2.85053e-17)
(-7.72545e-05 3.24352e-05 9.46688e-17)
(-1.79097e-08 0.000109311 9.92329e-17)
(5.57941e-05 2.2327e-05 1.04281e-16)
(-1.41364e-07 0.00010933 9.86052e-17)
(9.52754e-08 0.000109303 1.53867e-18)
(6.39496e-05 2.34629e-05 1.10201e-16)
(6.83324e-05 2.43736e-05 -1.03076e-16)
(7.76577e-05 3.00915e-05 0)
(-8.6345e-05 3.5208e-05 0)
(-6.41977e-07 0.000109345 -7.71628e-19)
(7.10838e-05 2.79049e-05 1.35778e-16)
(-6.33072e-07 0.000109266 -7.66124e-19)
(-7.69484e-05 2.98205e-05 -4.76448e-17)
(7.20071e-05 2.23006e-05 0)
(5.78565e-07 0.000109309 -1.96683e-16)
(1.01267e-07 0.0001093 -1.97903e-16)
(-7.65718e-05 3.09207e-05 0)
(-7.6936e-05 2.95337e-05 0)
(7.48366e-08 0.000109388 -1.96667e-16)
(-2.19046e-06 0.000110424 0)
(-7.60113e-05 3.22849e-05 -9.48019e-17)
(-1.46071e-06 0.000109926 -1.9424e-16)
(-7.00661e-05 2.66368e-05 0)
(8.02908e-05 2.24561e-05 2.54538e-17)
(-2.1585e-09 0.000109176 -7.79542e-19)
(2.59804e-07 0.000109417 9.90854e-17)
(5.98374e-05 3.73684e-05 -3.41263e-18)
(3.54614e-08 0.000109291 -9.9319e-17)
(-7.74023e-05 2.86594e-05 7.63525e-17)
(-8.69218e-05 3.93818e-05 6.74037e-17)
(-6.90794e-07 0.000109326 9.79008e-17)
(-7.74169e-05 2.88356e-05 7.06836e-17)
(-1.19352e-07 0.000109346 9.93291e-17)
(-6.54077e-07 0.000109281 -9.82586e-17)
(-7.28025e-07 0.000109311 -9.79201e-17)
(-7.63042e-05 3.10403e-05 0)
(-7.71434e-05 2.89956e-05 -2.41847e-17)
(-7.61258e-08 0.00010928 -3.87389e-19)
(6.6557e-07 0.000109334 0)
(-7.61953e-05 3.11808e-05 9.63585e-17)
(-7.69589e-05 2.90447e-05 0)
(9.88433e-08 0.000109319 -9.86447e-17)
(-5.48261e-07 0.000109645 1.53364e-18)
(7.48771e-05 2.90334e-05 -1.0414e-16)
(1.00835e-07 0.000109301 -1.99253e-16)
(-8.22184e-05 3.07647e-05 1.65656e-16)
(-4.20191e-08 0.000109308 0)
(-2.63556e-08 0.000109318 9.83337e-17)
(-2.47377e-08 0.000109319 0)
(6.33182e-09 0.000109298 9.83629e-17)
(8.84852e-08 0.000109299 -9.81141e-17)
(6.06686e-05 2.50717e-05 5.88645e-17)
(2.66739e-08 0.000109274 9.8183e-17)
(4.1949e-08 0.000109584 -7.10954e-21)
(7.45066e-10 0.000109306 9.93239e-17)
(-7.58138e-07 0.000109329 1.96244e-16)
(-7.70705e-05 2.94919e-05 0)
(-7.71109e-05 2.9504e-05 -2.54744e-17)
(-6.64248e-07 0.000109295 0)
(-1.60711e-08 0.000109313 0)
(-8.77553e-08 0.000109259 -1.00202e-16)
(6.65656e-07 0.000109365 9.84978e-17)
(5.59832e-07 0.000109353 9.88688e-17)
(-7.68599e-05 3.0198e-05 1.24976e-16)
(5.94445e-07 0.000109312 9.8593e-17)
(-5.48253e-08 0.000109375 -9.93197e-17)
(-1.02145e-07 0.000109318 0)
(-2.96436e-08 0.000109307 -7.12905e-21)
(-7.70396e-05 2.96403e-05 4.86795e-17)
(6.5863e-07 0.000109326 0)
(6.29185e-07 0.000109279 9.86618e-17)
(-2.72046e-07 0.000109518 -9.95448e-17)
(-7.77066e-05 2.89589e-05 0)
(5.16371e-11 0.000109309 0)
(7.55217e-05 2.90953e-05 -1.03411e-16)
(-1.14581e-08 0.000109387 7.75374e-19)
(-9.38357e-09 0.00010942 -1.93282e-19)
(-5.2636e-07 0.000109218 -3.84134e-19)
(-7.38504e-07 0.000109287 7.07805e-21)
(-5.89654e-07 0.000109228 3.84448e-19)
(-7.97864e-05 3.75217e-05 -6.01838e-17)
(-7.07309e-07 0.00010922 9.87463e-17)
(3.73354e-07 0.00010936 0)
(-6.939e-07 0.000109238 9.80442e-17)
(-7.04855e-07 0.000109263 -9.82118e-17)
(-7.46588e-07 0.000109311 -9.86679e-17)
(-9.29059e-05 7.61649e-05 -1.49598e-16)
(-1.74498e-05 2.19315e-05 -1.86372e-16)
(6.82764e-07 0.000109333 -9.87962e-17)
(-6.74148e-08 0.000109292 -9.84852e-17)
(6.5854e-09 0.000109315 -9.84628e-17)
(6.15209e-07 0.000109278 9.86917e-17)
(-7.74491e-05 2.92166e-05 -9.81941e-17)
(-7.86482e-07 0.000109273 9.80332e-17)
(-7.53738e-08 0.000109322 -9.83002e-17)
(-5.09097e-07 0.000109542 -1.95527e-16)
(-5.32944e-08 0.000109292 -7.77561e-19)
(7.27806e-07 0.000109295 9.83184e-17)
(7.49851e-05 2.86842e-05 1.03428e-16)
(-2.23781e-07 0.000109366 -9.83189e-17)
(4.06633e-08 0.000109311 -7.07292e-21)
(7.98835e-05 3.28528e-05 -1.27551e-16)
(-2.36171e-08 0.000109303 0)
(-4.23955e-08 0.000109308 0)
(-7.8548e-07 0.000109292 -1.97023e-16)
(-7.71019e-05 2.95513e-05 4.88448e-17)
(1.57385e-08 0.000109241 -1.94229e-19)
(-9.13004e-07 0.000109329 1.02947e-19)
(7.53866e-05 2.87359e-05 6.8747e-18)
(-8.3602e-07 0.000109389 9.84868e-17)
(8.30708e-07 0.000109332 9.84736e-17)
(7.63811e-07 0.000109306 -9.8402e-17)
(1.85962e-07 0.000109297 -9.86786e-17)
(-8.9194e-07 0.000109338 7.07511e-21)
(-7.95091e-05 2.76654e-05 -1.045e-16)
(-6.33326e-05 2.31962e-05 1.2875e-16)
(-9.72751e-08 0.000109191 -7.11308e-21)
(-5.90848e-08 0.000109291 -9.82513e-17)
(-7.64525e-05 3.12831e-05 2.47937e-17)
(6.92539e-08 0.000109326 -7.12926e-21)
(-8.20703e-07 0.00010925 3.90475e-19)
(8.25722e-07 0.000109291 -1.96921e-16)
(3.625e-07 0.000109181 9.88543e-17)
(6.98091e-07 0.000109261 -9.88533e-17)
(6.89124e-07 0.000109284 -9.88507e-17)
(8.24607e-07 0.000109305 9.85109e-17)
(6.82934e-07 0.000109273 9.63545e-20)
(8.19791e-07 0.000109311 0)
(7.55557e-05 2.85727e-05 0)
(-6.63603e-07 0.000109323 9.91719e-17)
(-5.52206e-08 0.000109439 0)
(1.49791e-07 0.0001094 9.88074e-17)
(8.2097e-07 0.000109304 0)
(8.16046e-07 0.000109317 9.8544e-17)
(8.28271e-07 0.000109295 -4.81054e-20)
(9.33621e-08 0.000109383 9.66868e-17)
(7.46123e-07 0.000109356 0)
(-1.86601e-07 0.000109419 0)
(-6.8327e-07 0.000109408 -9.92788e-17)
(-7.68539e-05 2.98012e-05 -1.19398e-21)
(7.23768e-07 0.000109304 0)
(-1.6419e-06 0.000111181 0)
(7.13303e-07 0.000109308 0)
(-7.53176e-05 2.86912e-05 7.62234e-17)
(6.25498e-08 0.0001093 -9.83738e-17)
(-5.17445e-07 0.000109536 9.92655e-17)
(7.47772e-07 0.000109377 -4.8209e-20)
(-7.48451e-05 3.19372e-05 2.70017e-17)
(-7.6552e-05 3.09295e-05 -2.46522e-17)
(6.55364e-07 0.00010935 -9.88479e-17)
(-1.79848e-07 0.000109138 0)
(-2.77684e-08 0.000109519 -9.88868e-17)
(6.60542e-07 0.000109361 7.10099e-21)
(8.28593e-07 0.000109286 -9.87701e-17)
(-1.65459e-07 0.000109131 1.96435e-16)
(7.29467e-05 2.25617e-05 -1.77304e-16)
(7.55675e-05 2.94689e-05 -2.08985e-16)
(-1.07007e-07 0.000109347 1.97507e-16)
(7.44405e-05 2.92044e-05 0)
(6.46077e-07 0.000109362 0)
(8.38399e-07 0.000109276 -1.92534e-19)
(-7.94782e-05 3.16061e-05 -8.92458e-17)
(-7.66684e-05 3.15033e-05 5.13614e-17)
(5.25947e-08 0.000109259 -4.85965e-20)
(6.5011e-07 0.000109374 9.88728e-17)
(7.46981e-08 0.000109308 -9.85134e-17)
(-7.00115e-05 6.716e-05 4.98445e-17)
(6.16172e-07 0.000109359 3.86452e-19)
(-8.02648e-07 0.000109361 9.85967e-17)
(-6.6728e-08 0.000109472 9.897e-17)
(-8.76392e-05 4.48975e-05 -9.77229e-17)
(6.36295e-07 0.000109398 0)
(-4.63198e-08 0.000109319 1.94754e-19)
(-1.6196e-07 0.000109434 -9.85013e-17)
(-7.71153e-05 2.92373e-05 0)
(8.04008e-05 2.27679e-05 1.87095e-16)
(-7.62082e-05 3.20855e-05 2.60275e-17)
(6.07941e-07 0.000109371 -3.86516e-19)
(8.91582e-08 0.000109344 -9.88526e-17)
(-7.13095e-07 0.000109243 -9.87688e-17)
(-7.67516e-05 3.08634e-05 1.47478e-16)
(6.1342e-07 0.000109409 -9.89788e-17)
(-9.47784e-07 0.000109283 3.84597e-19)
(4.93875e-08 0.000109257 9.72821e-20)
(7.65452e-07 0.000109278 0)
(-5.56576e-08 0.000109481 0)
(7.73107e-07 0.000109269 0)
(8.20445e-08 0.000109361 0)
(-7.68889e-05 2.9323e-05 -2.45303e-17)
(-8.39859e-07 0.00010924 0)
(-5.5886e-08 0.000109312 0)
(8.1037e-05 3.83299e-05 7.63885e-17)
(7.01719e-08 0.000109351 0)
(-4.4998e-06 0.000113719 0)
(-2.19952e-08 0.000109493 1.97875e-16)
(3.97613e-08 0.000109257 0)
(7.50765e-05 2.73722e-05 -2.33343e-17)
(7.53257e-05 2.92407e-05 0)