/*--------------------------------*- C++ -*----------------------------------*\
  =========                 |
  \\      /  F ield         | OpenFOAM: The Open Source CFD Toolbox
   \\    /   O peration     | Website:  https://openfoam.org
    \\  /    A nd           | Version:  12
     \\/     M anipulation  |
\*---------------------------------------------------------------------------*/
FoamFile
{
    format      ascii;
    class       surfaceScalarField;
    location    "0.13";
    object      phi;
}
// * * * * * * * * * * * * * * * * * * * * * * * * * * * * * * * * * * * * * //

dimensions      [0 3 -1 0 0 0 0];

internalField   nonuniform List<scalar> 
6438
(
-2.12338e-08
2.63782e-06
-2.61659e-06
-2.32667e-08
3.06427e-06
-3.041e-06
-2.87292e-06
-4.85375e-07
3.3583e-06
2.72616e-06
-2.99094e-06
2.64786e-07
4.19121e-06
-3.27344e-06
-9.17768e-07
9.54717e-07
3.23649e-06
-3.26272e-06
3.89799e-07
-2.83182e-06
2.80855e-06
3.05739e-06
-3.65158e-06
5.94194e-07
2.84449e-06
-3.33416e-06
4.89675e-07
-2.75148e-06
3.34324e-06
-5.91763e-07
6.61022e-07
-3.01706e-06
2.35604e-06
-3.40224e-06
6.50764e-07
2.61428e-06
1.20053e-06
-3.81481e-06
2.45515e-06
-2.47638e-06
-1.38604e-07
2.87735e-06
-2.73875e-06
-3.62535e-06
3.515e-06
1.10346e-07
-2.74538e-06
3.3316e-06
-5.86217e-07
-3.39888e-06
6.53492e-07
1.07939e-06
2.28414e-06
-3.36353e-06
-7.87013e-07
-5.15155e-07
1.30217e-06
-1.6803e-07
3.01456e-06
-2.84653e-06
-2.79442e-06
-4.52914e-07
3.24733e-06
-3.41894e-06
1.50103e-06
1.91791e-06
-2.97016e-06
2.80213e-06
-2.63785e-06
3.20683e-06
-5.68975e-07
-3.22096e-06
4.2654e-07
3.05636e-06
-2.39534e-06
-2.77563e-06
-5.17481e-07
3.29311e-06
-3.35478e-06
7.1693e-07
2.5749e-06
-3.23067e-06
6.55771e-07
1.45153e-08
-3.1478e-06
3.13328e-06
3.07983e-06
-3.09659e-06
1.67611e-08
-3.05121e-06
5.14071e-07
2.53713e-06
-4.12257e-06
6.66382e-07
3.45619e-06
2.89796e-06
-2.88344e-06
2.92295e-06
-1.96789e-07
1.89695e-06
2.65573e-06
-4.55268e-06
-9.34446e-07
3.54873e-06
-2.72143e-06
2.98934e-06
-2.67908e-07
-3.15369e-06
3.12427e-06
2.94224e-08
-1.31176e-06
2.39115e-06
2.81992e-06
2.45688e-08
-3.38926e-06
3.32062e-06
6.86412e-08
3.03951e-06
-4.64613e-07
-2.27576e-06
2.13716e-06
-3.93871e-06
6.6527e-07
2.99293e-06
2.88809e-07
-3.28174e-06
-2.32923e-06
-7.21972e-07
-4.26006e-07
-2.80086e-06
3.17806e-06
-3.77207e-07
-2.09067e-06
3.01419e-06
-9.23514e-07
3.02315e-06
-3.02315e-06
9.4884e-07
2.29292e-06
3.0181e-07
-2.59473e-06
1.34556e-06
6.52241e-07
-1.9978e-06
2.56127e-06
5.34338e-07
-3.09561e-06
2.47186e-06
-9.70833e-07
-1.43351e-06
-2.5052e-06
-2.96776e-08
2.66486e-06
-2.63519e-06
-3.28761e-06
3.28761e-06
-3.4042e-06
3.43803e-06
-3.38212e-08
1.36692e-07
2.53334e-06
-2.67003e-06
9.62341e-09
-3.10297e-06
3.09335e-06
2.87909e-06
-2.86947e-06
-3.13904e-06
3.63405e-07
-3.14749e-06
-2.41767e-07
-2.7065e-06
2.97326e-06
-2.66758e-07
2.99298e-07
2.59143e-06
-2.89073e-06
-3.18231e-06
3.06078e-06
1.21522e-07
3.1027e-06
-3.1027e-06
2.88497e-06
1.72418e-07
-1.89492e-06
-1.43925e-06
2.70126e-06
5.69988e-07
-3.27125e-06
-2.65112e-06
-5.02577e-07
2.35436e-06
1.82063e-06
-4.17499e-06
-3.64797e-06
2.3362e-06
-2.33047e-06
-1.3175e-06
3.20846e-06
-5.07201e-07
1.91423e-06
-5.6867e-07
2.6018e-06
2.95324e-07
-2.89712e-06
-3.2074e-06
-1.96807e-07
-4.55788e-07
-7.80239e-07
-2.50737e-06
3.47641e-06
-3.47641e-06
-2.30036e-06
-8.81943e-07
-2.08879e-07
-3.91369e-06
-2.99948e-06
2.98773e-06
1.17509e-08
1.08006e-07
-3.03979e-06
2.93178e-06
-3.34287e-07
2.93608e-06
3.00335e-06
7.64772e-08
-3.13719e-06
-4.88154e-07
-3.16664e-06
3.24629e-06
-7.96537e-08
3.30979e-06
-1.85185e-06
-1.45794e-06
2.96712e-06
-2.85911e-06
6.13034e-08
3.33054e-06
-1.69494e-06
-1.6356e-06
1.89337e-06
1.41642e-06
3.05397e-06
-3.05397e-06
-2.34288e-06
3.35984e-06
-1.01697e-06
-2.94327e-06
1.42413e-07
-4.03119e-07
-2.38309e-06
2.78621e-06
-2.75929e-06
1.0817e-07
-2.95602e-06
6.13143e-07
2.54938e-06
5.59725e-07
-3.10911e-06
-1.82018e-07
2.7314e-06
-2.66355e-06
3.07712e-06
-4.13574e-07
-2.82895e-06
1.07512e-07
1.95667e-06
1.37387e-06
2.94908e-06
-5.93046e-07
1.26829e-07
2.89632e-06
-2.54474e-06
-2.14551e-07
2.65954e-06
5.66557e-07
-3.22609e-06
-1.47104e-06
-1.26881e-06
2.73985e-06
1.93672e-06
-2.46439e-07
-1.69029e-06
-3.1478e-06
6.39927e-07
3.15221e-06
-3.79214e-06
-1.4628e-06
6.75785e-07
3.1469e-06
5.99262e-08
3.41616e-06
-1.76723e-06
-1.64893e-06
1.14439e-06
2.27176e-06
3.18215e-06
-5.2261e-07
3.886e-06
-1.98905e-06
-2.87919e-06
9.31697e-09
2.86987e-06
-4.11871e-06
4.18535e-07
3.70017e-06
-4.77121e-08
-2.85983e-06
2.90754e-06
3.14439e-06
1.76225e-07
-2.42649e-06
2.39681e-06
-2.89449e-06
2.95242e-06
-5.79228e-08
2.93116e-06
-2.97887e-06
3.02518e-06
-3.02518e-06
2.97739e-06
8.68834e-08
2.98331e-06
-6.9039e-07
2.94263e-06
-2.80594e-06
-2.59264e-06
2.18952e-06
2.69874e-08
2.85764e-06
-2.88463e-06
3.36567e-06
-2.35725e-06
-1.00842e-06
-3.10297e-06
-4.50949e-08
3.50916e-08
-2.86691e-06
-2.8717e-06
1.65197e-07
3.26988e-08
2.86526e-06
2.7729e-06
-2.4736e-06
-2.85949e-06
1.95944e-07
2.90044e-06
-8.05226e-08
-1.04114e-07
2.5249e-06
-2.42079e-06
1.98927e-06
1.3764e-06
-2.97268e-06
6.39633e-07
2.33305e-06
3.0312e-06
-1.70111e-08
-4.00864e-06
3.63095e-07
3.64554e-06
-4.09094e-08
-2.84486e-06
2.88576e-06
1.89071e-06
4.60165e-08
1.81545e-07
2.84965e-06
2.81958e-06
2.36782e-07
2.91427e-06
-2.95518e-06
-3.03665e-06
-1.00537e-07
3.09859e-06
-3.33119e-06
2.32604e-07
-2.76896e-06
-1.10233e-07
-3.37064e-06
1.46111e-06
1.90953e-06
-5.92929e-10
2.9133e-06
1.01255e-07
-2.74317e-06
3.1902e-06
-4.47033e-07
-3.01992e-06
2.60321e-06
4.16707e-07
-4.08897e-07
1.05648e-06
-6.47586e-07
-9.47828e-07
-2.40695e-06
-3.03979e-06
-2.40486e-08
2.90314e-06
8.92252e-07
2.46759e-06
-4.90054e-08
-2.95602e-06
-1.41356e-08
-6.30051e-08
-3.23072e-06
2.72925e-06
5.01469e-07
-1.89249e-07
2.40989e-06
4.75076e-07
4.7237e-06
-2.06797e-06
-9.98763e-07
-2.40011e-06
2.96231e-06
4.1045e-08
-2.5415e-06
1.07046e-06
-1.14342e-06
-1.80211e-06
2.94554e-06
-1.01968e-06
-2.38256e-06
-1.6567e-06
4.01106e-06
-3.05686e-06
1.00837e-07
-2.88537e-06
2.89633e-06
-1.09595e-08
-2.38133e-06
2.27722e-06
-3.49204e-08
-2.82772e-06
2.86264e-06
-3.11002e-06
5.3158e-08
2.59245e-06
-3.08473e-06
4.92276e-07
2.88888e-06
-2.9238e-06
2.5811e-06
-9.76613e-07
-1.60448e-06
-3.90553e-06
1.38448e-06
2.52105e-06
2.64607e-06
2.54376e-07
2.18498e-06
1.33002e-06
6.3789e-07
2.83852e-06
-7.59442e-07
-2.71697e-06
-3.14896e-06
3.12037e-06
2.85876e-08
-3.14013e-06
-8.83632e-09
-3.12466e-06
-1.54648e-08
1.03548e-08
8.13626e-07
-4.5469e-06
3.73327e-06
-3.37411e-06
4.01404e-06
2.66452e-06
-2.63753e-06
2.84821e-06
1.18907e-07
2.32203e-07
2.34889e-06
-2.85983e-06
-2.59283e-06
2.58104e-06
3.20843e-07
-2.90188e-06
-1.46031e-08
-6.16907e-07
4.53761e-06
-3.9207e-06
4.30373e-06
-3.10321e-06
-1.3069e-06
1.95914e-06
-8.29142e-07
-2.5415e-06
-2.25623e-06
-1.6493e-06
-2.8587e-06
-1.77959e-07
-2.87954e-06
2.87904e-06
4.98538e-10
-4.53632e-07
2.70165e-06
-2.24802e-06
-3.09342e-06
3.1151e-06
-2.16856e-08
-3.06094e-06
-3.24735e-08
-3.93197e-06
2.46474e-07
3.6855e-06
-2.74591e-06
-1.78134e-07
2.92405e-06
3.08263e-06
3.24671e-08
-5.47607e-07
-3.3674e-06
1.22977e-06
2.13762e-06
1.88067e-08
-1.78193e-06
-1.58547e-06
-4.20268e-08
-3.16356e-08
-2.81104e-06
2.84268e-06
-2.8899e-06
1.43984e-07
2.61183e-06
3.5048e-07
3.00988e-06
-2.88305e-06
2.86092e-06
-2.89255e-06
2.84944e-06
8.17267e-08
1.4017e-06
2.90203e-06
2.96575e-06
-5.55862e-07
-2.33694e-07
-3.88501e-06
-1.68678e-07
2.34812e-06
-2.17945e-06
-3.04633e-06
-1.46107e-08
-3.04582e-06
-5.09719e-10
3.06976e-06
-3.04769e-06
-2.20675e-08
3.03699e-06
3.27646e-08
-2.84486e-06
7.03078e-07
-9.65117e-07
2.62039e-07
-3.44041e-06
2.01527e-06
1.42514e-06
1.53811e-06
-3.08474e-06
1.54663e-06
-2.693e-06
-2.50266e-07
-2.86986e-06
2.85559e-06
1.42718e-08
-2.98416e-06
2.8782e-06
1.05966e-07
-2.38417e-07
3.05401e-06
-2.81559e-06
-2.96276e-06
7.28609e-08
-3.29019e-06
4.10382e-06
-3.03713e-07
-2.66897e-06
-3.09324e-06
2.85483e-06
-2.42336e-06
-2.22449e-07
2.64581e-06
-2.2671e-06
3.01766e-06
1.93295e-08
-2.06359e-06
-5.52995e-07
6.13078e-07
-6.00832e-08
-2.81579e-08
1.11337e-07
-3.92524e-06
3.81391e-06
-2.19743e-06
-1.06529e-06
-3.05868e-06
2.99717e-06
6.15153e-08
-3.01194e-06
-4.67452e-08
-1.08197e-06
6.73075e-07
2.84413e-06
7.01405e-08
3.03432e-06
-5.00975e-07
3.00968e-06
-3.00673e-06
-2.95402e-09
-7.95185e-09
-2.78928e-06
2.79724e-06
3.15213e-06
-2.25988e-06
-3.80094e-08
3.1196e-06
1.76493e-06
-4.88453e-06
3.09059e-06
-3.09059e-06
4.80348e-07
2.80727e-06
-1.09094e-06
-1.93221e-06
-2.46509e-06
2.97172e-06
-5.06631e-07
-3.26404e-07
-2.65776e-06
2.84656e-06
-2.85451e-06
-2.72588e-06
4.50849e-08
2.6808e-06
5.23225e-07
-2.76336e-06
2.24014e-06
-2.86138e-06
2.83132e-06
3.00606e-08
1.82907e-06
1.32307e-06
-8.93349e-08
-4.6366e-07
-1.72183e-06
-1.71858e-06
-6.62593e-07
-3.05555e-06
3.12384e-07
-2.82772e-06
2.56257e-06
5.3602e-07
-2.37647e-06
-2.67209e-06
2.48725e-07
-2.72637e-06
1.58294e-06
3.09352e-06
-2.5146e-06
-5.78915e-07
5.2776e-07
2.48212e-06
-2.18518e-06
-1.03578e-06
-3.02505e-06
3.02505e-06
3.02767e-06
-2.91211e-06
-1.1556e-07
1.73731e-07
-2.86674e-06
-2.42246e-06
2.739e-06
-3.16538e-07
-9.58544e-07
4.43389e-07
2.81985e-06
-2.8337e-06
1.38513e-08
2.96537e-06
3.17951e-08
2.99413e-06
3.35422e-08
4.5213e-06
-2.88512e-06
-7.76365e-08
-2.53185e-06
2.07822e-06
2.83982e-06
4.90589e-08
2.98564e-06
-2.96945e-06
-1.61823e-08
-2.63018e-08
-4.13523e-08
3.12646e-07
-2.56066e-06
2.24802e-06
-8.89529e-08
-3.91968e-06
9.37619e-07
2.08988e-07
-2.63145e-06
-2.85454e-06
2.81087e-06
4.36723e-08
2.8474e-06
-2.54947e-07
-1.32822e-06
-1.76837e-06
-3.99102e-06
2.95515e-07
-1.60242e-06
-4.74516e-07
1.31202e-08
2.93277e-06
-2.61193e-06
-2.81104e-06
-2.81534e-06
7.35032e-08
2.74183e-06
3.9737e-06
5.6391e-07
2.29203e-06
1.14599e-06
2.77244e-06
-1.23434e-06
2.89362e-06
-1.6437e-07
6.64671e-06
-4.88178e-06
-4.5469e-06
-1.45785e-06
-1.56207e-06
-3.71559e-08
3.08693e-06
-2.89237e-06
-1.94566e-07
2.92746e-06
6.66628e-08
3.38419e-07
-2.80351e-06
-2.08031e-06
2.39296e-06
2.83602e-06
2.48922e-08
2.22412e-06
9.84338e-07
2.97586e-06
1.11074e-07
2.97388e-06
-2.93132e-06
-4.25543e-08
-1.3413e-06
-1.88937e-06
-1.34299e-07
2.73751e-06
5.08868e-08
-3.15359e-06
2.46565e-06
-1.94242e-06
-4.19916e-08
6.17671e-08
2.40821e-06
-2.6126e-06
2.04391e-07
4.40666e-07
2.53106e-06
4.03316e-06
-3.92183e-06
1.40362e-06
1.77444e-06
-2.84667e-06
2.81392e-06
3.27466e-08
-6.52689e-08
-1.65673e-06
9.09449e-07
7.47283e-07
-3.01008e-08
3.09229e-06
-3.09229e-06
3.50103e-06
-2.03152e-06
-1.46951e-06
-2.55746e-06
-4.33487e-07
2.15927e-06
1.02288e-06
2.95969e-06
1.61723e-08
-2.78928e-06
2.76735e-06
1.77783e-08
-2.78513e-06
2.26437e-06
3.15359e-06
-3.13328e-06
7.93165e-08
3.68102e-06
-3.26249e-06
2.84882e-06
-3.03066e-06
2.83144e-06
-6.40938e-08
2.55556e-06
-2.76642e-06
2.75211e-06
1.43051e-08
1.28111e-07
2.22114e-06
-2.34925e-06
-2.51535e-06
2.07874e-06
-1.88028e-07
2.62948e-06
3.59857e-07
-2.57274e-08
-2.43506e-06
-4.24428e-07
-3.6494e-06
2.3081e-06
5.37213e-09
-2.77433e-06
-2.95309e-06
-1.40151e-07
3.95327e-06
-2.13264e-06
2.83667e-08
-5.11783e-07
3.1443e-06
-2.63252e-06
-1.34327e-06
-3.13461e-07
2.75511e-06
-2.78432e-06
2.92058e-08
-2.84882e-06
2.82824e-06
1.22677e-06
1.7503e-06
-2.97707e-06
2.96041e-06
-5.52203e-07
2.44754e-07
2.6326e-06
2.90485e-06
2.85349e-07
3.17097e-07
3.85981e-07
-3.09335e-06
6.81647e-08
-2.4539e-06
2.79232e-06
-1.42219e-06
1.71771e-06
2.6213e-07
-2.57842e-06
2.31628e-06
-2.15596e-08
5.22643e-08
-2.57066e-06
-2.92718e-06
2.87314e-06
5.40391e-08
-2.80616e-06
2.9156e-07
1.83429e-06
1.66674e-06
-1.57946e-06
3.23693e-06
-1.65747e-06
3.24636e-06
-3.03035e-06
-2.16011e-07
8.20653e-08
1.99667e-06
-2.78571e-06
-2.96232e-08
2.8274e-06
4.04327e-09
1.39624e-06
-4.86791e-07
3.59866e-06
-3.23556e-06
2.57469e-06
3.98576e-07
1.61641e-07
-2.87027e-06
4.35211e-07
4.30843e-08
-2.49698e-06
3.20447e-06
-2.59133e-06
2.61249e-06
-1.58905e-07
-2.48753e-06
2.64643e-06
-2.81397e-06
2.93112e-06
-3.47962e-08
-4.26294e-06
3.42244e-07
-1.85167e-08
2.76051e-06
5.34151e-08
-2.60438e-06
-2.86079e-06
2.8492e-06
1.15848e-08
3.42845e-06
-1.99362e-06
-1.43483e-06
-2.39985e-06
-2.1597e-07
2.61582e-06
-6.3036e-09
-2.82586e-06
6.0846e-08
-3.06664e-07
3.02118e-06
-2.71452e-06
-2.76943e-06
2.78328e-06
-4.02092e-06
-5.86132e-07
-3.88815e-06
3.79046e-06
9.76835e-08
2.2174e-06
1.12584e-06
2.5951e-06
2.33528e-07
-2.82863e-06
2.75903e-06
-1.12966e-07
2.22286e-06
1.10874e-06
-1.97139e-06
6.28121e-07
-2.79047e-06
2.42266e-06
-2.75695e-06
-3.74531e-06
3.73178e-06
1.35294e-08
3.38032e-06
-2.71394e-06
2.7605e-06
-8.39038e-09
1.69976e-07
-2.5746e-06
2.40463e-06
-4.16174e-08
-3.7037e-06
3.34477e-06
-3.34477e-06
-1.52382e-06
2.87008e-06
-1.34626e-06
-2.76184e-06
2.76184e-06
2.82548e-06
-2.49757e-06
-3.27908e-07
2.6225e-06
6.23785e-07
2.94301e-06
-2.41525e-06
2.91162e-06
-3.25851e-08
-2.27691e-06
-3.64829e-07
2.64174e-06
-3.69985e-06
3.71255e-06
-1.27032e-08
3.41866e-06
-2.05857e-06
-1.36009e-06
4.98621e-07
2.44438e-06
-3.73857e-06
3.71979e-06
1.87792e-08
-1.05091e-09
-2.73955e-08
3.68922e-06
-3.66183e-06
-3.72458e-06
3.72458e-06
-4.42677e-08
2.79938e-06
3.99786e-06
-3.72621e-06
-2.71645e-07
-3.74097e-06
3.71357e-06
3.73752e-06
-3.71858e-06
-1.89409e-08
-2.72282e-06
-6.14972e-08
3.18605e-06
-4.27259e-08
3.71293e-06
-3.67021e-06
3.71406e-06
-3.72109e-06
7.02432e-09
-2.80827e-06
3.69464e-06
-5.41286e-09
-2.85769e-06
2.8323e-06
2.53829e-08
-3.69397e-06
3.70741e-06
-1.34403e-08
2.82939e-06
-2.75589e-06
-3.73108e-06
3.68835e-06
2.86218e-06
-9.10834e-07
1.36283e-06
1.78147e-06
-2.06758e-06
-1.58182e-06
-3.71816e-06
3.71816e-06
-3.73519e-06
-5.77837e-09
3.45752e-06
-6.34197e-07
-2.82332e-06
-2.43487e-06
1.65463e-06
9.30859e-08
3.70064e-06
-3.71216e-06
1.15229e-08
2.72358e-06
-2.72206e-06
-1.51642e-09
3.81592e-06
-3.71671e-06
-9.9212e-08
3.68122e-06
1.94118e-08
3.67447e-06
3.84668e-08
-7.68096e-09
-2.75416e-06
-3.40593e-06
1.8743e-06
1.53163e-06
-2.75027e-06
2.76805e-06
3.693e-06
-1.17712e-08
3.87318e-07
2.5063e-06
1.98649e-06
-7.59726e-07
-3.72577e-06
-5.30798e-09
3.03811e-06
1.80225e-06
-3.07107e-06
-4.68873e-07
-3.79407e-06
2.77355e-06
-2.79043e-06
1.68782e-08
-1.28709e-07
-3.75944e-06
2.88791e-06
-3.23188e-08
3.20933e-06
-2.19473e-06
-1.0146e-06
-2.77906e-06
3.69868e-06
-3.69868e-06
2.64882e-06
3.62604e-08
-2.68508e-06
2.8497e-06
-3.70648e-06
3.70158e-06
4.89428e-09
3.68006e-06
-3.7157e-06
3.56416e-08
2.33902e-06
-3.09846e-06
-9.95092e-09
-3.68037e-06
3.69032e-06
3.67186e-06
-3.68181e-06
-1.22254e-07
3.91272e-06
-2.93642e-06
3.18289e-06
-3.3301e-06
2.31042e-06
-5.85059e-08
3.79029e-06
3.18347e-07
1.6408e-06
3.37861e-08
3.42373e-06
-1.02788e-08
2.96274e-06
-2.95247e-06
-2.53801e-08
-3.71528e-06
-2.32904e-08
3.05166e-06
-3.06423e-07
-2.74524e-06
-3.69062e-06
3.69062e-06
2.1646e-06
-1.86279e-06
-3.72119e-06
3.71139e-06
9.80368e-09
2.84239e-06
-2.84239e-06
2.76588e-06
-4.23049e-08
3.69567e-06
-3.70161e-06
5.94402e-09
-3.56879e-06
9.75963e-07
2.95124e-09
-2.74529e-06
2.74234e-06
2.97725e-06
-2.48355e-08
3.70326e-06
3.42591e-08
2.24687e-06
3.83141e-07
-2.63001e-06
3.71472e-06
-2.00887e-08
2.88742e-06
-2.88742e-06
3.69116e-06
-3.67825e-06
-1.29078e-08
-2.82353e-06
2.8019e-06
2.16325e-08
3.71927e-06
-3.70804e-06
-1.1235e-08
-3.6968e-06
3.6968e-06
5.52991e-07
2.58953e-06
8.76123e-08
-2.67715e-06
-3.72149e-06
3.71176e-06
9.73349e-09
-1.39058e-08
-2.78755e-06
2.77125e-06
2.29738e-09
3.45839e-06
-6.51438e-07
-2.80695e-06
2.38993e-06
3.68177e-06
-3.69197e-06
1.01957e-08
2.84658e-06
3.03862e-06
4.28339e-08
2.60598e-06
3.77539e-06
-7.21323e-08
3.66955e-06
1.22173e-08
2.70133e-06
-2.70133e-06
-1.42219e-06
3.73378e-06
-3.70435e-06
-1.13494e-08
3.70257e-06
-3.68866e-06
-1.39072e-08
7.27452e-08
-3.77293e-06
3.70018e-06
3.88499e-07
-3.73327e-06
-3.71476e-06
3.70832e-06
6.43778e-09
2.68211e-06
-2.68039e-06
-1.719e-09
2.82548e-06
-2.4935e-06
2.4935e-06
3.67706e-06
-7.50369e-09
-2.75664e-06
-2.5746e-06
2.5951e-06
2.86136e-06
-3.00369e-08
-8.4388e-09
2.93269e-07
-3.65184e-06
3.70186e-06
-3.70313e-06
1.27236e-09
8.7759e-08
2.59435e-06
8.57759e-08
2.96588e-06
2.78651e-06
-2.06281e-08
-3.70659e-06
3.7022e-06
4.3935e-09
3.67384e-06
-3.68431e-06
1.04639e-08
-3.70308e-06
-1.81127e-08
3.69314e-06
-3.68336e-06
-9.78583e-09
2.78898e-06
5.34094e-08
3.69528e-06
1.61117e-08
-4.72824e-09
3.68714e-06
1.5053e-08
-5.67708e-10
-2.73234e-06
-3.74331e-06
3.96113e-08
-2.77027e-06
2.77027e-06
3.56237e-08
3.42276e-06
-2.8153e-06
5.38388e-07
1.95629e-08
3.6945e-06
1.54591e-07
-2.66593e-06
2.51134e-06
2.59899e-08
3.69859e-06
3.52899e-06
-3.84847e-06
2.78738e-06
1.00039e-07
3.67186e-06
-2.81802e-08
2.61771e-06
-2.69306e-06
1.26712e-08
2.65441e-06
-4.07544e-07
-3.68105e-06
3.68105e-06
-3.7007e-06
-2.07974e-08
2.49757e-06
-2.5872e-06
8.96322e-08
-3.69859e-06
2.72515e-06
-2.7222e-06
3.69346e-06
1.8305e-08
-3.6951e-06
-3.28845e-06
2.28969e-06
-3.71106e-06
3.70485e-06
6.21776e-09
2.52105e-06
2.37985e-07
2.74529e-06
1.65511e-08
-3.66902e-06
3.69435e-06
-2.53251e-08
-2.78934e-06
2.76476e-06
2.45787e-08
-3.68076e-06
1.17344e-08
2.77631e-06
-5.05829e-09
1.52475e-07
-2.86913e-06
2.71666e-06
3.67998e-06
-3.69637e-06
1.63898e-08
2.99353e-06
-3.13368e-06
3.67955e-06
-3.67915e-06
-4.08561e-10
-2.34949e-06
2.34949e-06
-2.89481e-06
2.89481e-06
-3.67529e-06
-5.4636e-09
-1.71771e-06
2.03605e-06
-3.6859e-06
3.68046e-06
5.43698e-09
2.89677e-08
3.68919e-06
2.29818e-06
-2.03605e-06
-2.29818e-06
2.4263e-06
2.43828e-06
-2.80311e-06
3.37073e-06
-1.99585e-06
-1.37488e-06
-3.69904e-06
-1.57219e-08
-5.31711e-07
-2.4263e-06
2.95801e-06
3.69437e-06
1.39548e-08
-2.79956e-06
2.59287e-06
3.70507e-06
-3.69756e-06
-7.51115e-09
-3.68319e-06
-2.77447e-06
2.78882e-06
-8.74867e-08
-9.91967e-09
3.70292e-06
3.68722e-06
-2.74234e-06
-3.77522e-06
-2.2167e-06
2.82863e-06
-6.11928e-07
-3.66703e-06
-1.33456e-08
3.6826e-06
4.54495e-09
2.14731e-06
-2.19454e-06
4.72303e-08
4.2607e-09
2.5872e-06
-2.69163e-06
1.0443e-07
1.70434e-06
1.72411e-06
-3.69738e-06
-1.36819e-08
-2.80164e-06
3.6664e-06
-3.66331e-06
-3.09131e-09
3.69291e-06
1.1936e-08
-3.70368e-06
3.69968e-06
4.00357e-09
2.83196e-06
2.78898e-06
-3.67584e-06
3.66773e-06
8.11826e-09
3.70178e-06
-3.70012e-06
-1.65576e-09
-2.75371e-06
2.78738e-06
3.67411e-06
-3.67411e-06
1.47284e-08
3.70506e-06
-2.31972e-06
-4.95582e-07
3.68174e-06
-1.75626e-09
-4.71997e-07
2.51412e-06
-2.04212e-06
3.67234e-06
-3.66916e-06
-3.17583e-09
1.12859e-08
3.6874e-06
3.66563e-06
-3.66894e-06
3.30408e-09
-3.7086e-06
-3.69519e-06
-2.22665e-06
3.22744e-09
3.69836e-06
-3.98766e-09
-3.68555e-06
3.68954e-06
-3.67433e-06
3.66628e-06
8.0576e-09
-3.69723e-06
-6.44616e-09
-2.79845e-06
-2.7035e-06
1.04359e-08
3.69341e-06
6.26363e-09
-3.67099e-06
3.66944e-06
1.5536e-09
-3.6735e-06
1.38897e-08
3.65961e-06
3.69614e-06
8.92551e-09
-3.68468e-06
-1.28818e-08
-2.68861e-06
-1.27174e-08
3.69434e-06
-3.6966e-06
2.25467e-09
3.67273e-06
-3.67671e-06
-3.67999e-06
3.67491e-06
5.08648e-09
3.6708e-06
-3.66783e-06
-2.97204e-09
2.76796e-06
2.30853e-09
3.69554e-06
6.24073e-09
-3.69035e-06
-9.77218e-09
-3.70385e-06
2.78882e-06
-3.67279e-06
3.66543e-06
7.35582e-09
2.43801e-06
-2.59692e-06
-3.66243e-06
3.67621e-06
-1.37788e-08
3.67383e-06
-3.67933e-06
5.50613e-09
-9.07517e-09
-3.69366e-06
-3.57667e-09
-9.62467e-09
-3.26156e-06
2.31373e-06
-6.33103e-09
3.67273e-06
-6.1252e-09
-3.97068e-09
-3.69678e-06
3.12392e-09
1.41539e-06
3.10475e-06
-4.52013e-06
-7.64876e-07
3.69432e-06
1.93354e-11
-3.6874e-06
6.87211e-09
3.68375e-06
-3.68956e-06
-7.03315e-09
-2.77711e-06
-3.70047e-06
3.68518e-09
1.30484e-08
3.68262e-06
-5.54843e-10
1.75818e-08
-3.63793e-06
3.62035e-06
3.69946e-06
-3.69759e-06
-1.87335e-09
-2.82669e-06
5.06969e-07
3.69234e-06
-3.68588e-06
-6.45887e-09
-3.69474e-06
-2.74006e-06
-1.44576e-07
3.67004e-06
-3.66713e-06
-2.90929e-09
1.93598e-08
-3.64138e-06
3.62202e-06
-3.69852e-06
3.69162e-06
6.90108e-09
-2.79656e-06
2.77313e-06
2.3428e-08
3.20653e-09
-3.69847e-06
-1.99919e-09
-2.81373e-06
5.83904e-07
2.22983e-06
-3.69367e-06
-4.8558e-09
3.69821e-06
1.24837e-09
-3.69215e-06
-5.44328e-09
-1.48142e-08
-3.69873e-06
2.61062e-10
-2.66023e-06
-3.07591e-07
2.96782e-06
2.12689e-06
1.55709e-08
-3.68375e-06
2.77415e-06
-9.39112e-09
-3.66988e-06
3.66988e-06
-7.10487e-09
3.69645e-06
1.75948e-09
-2.93733e-09
5.79346e-09
5.97475e-09
3.69785e-06
-1.39183e-09
2.17559e-09
3.69688e-06
-3.69691e-06
3.36767e-11
2.66818e-06
-2.66818e-06
-3.68926e-06
3.6813e-06
7.95524e-09
3.67604e-06
-3.67228e-06
-3.75752e-09
-5.21559e-09
3.69554e-06
2.30589e-09
3.69571e-06
1.17166e-09
-1.37088e-09
3.69598e-06
3.69248e-06
-3.6945e-06
2.02503e-09
-3.72812e-06
-3.68066e-06
-8.59585e-09
2.84575e-06
-3.48775e-08
3.68918e-06
3.29264e-09
3.08515e-08
3.69198e-06
-3.68792e-06
-4.05512e-09
-2.63721e-06
2.63721e-06
2.08163e-08
3.67598e-06
-3.66923e-06
3.67515e-06
-5.91766e-09
3.6912e-06
7.79514e-10
2.56036e-08
2.76091e-06
3.68683e-06
-3.68541e-06
-1.42351e-09
-3.6577e-06
-1.15293e-08
3.67654e-06
-3.67954e-06
3.00461e-09
3.68443e-06
2.39554e-09
3.69123e-06
4.47413e-09
-3.65396e-08
-3.64901e-06
-5.50755e-09
-3.25334e-07
-2.47818e-06
3.67066e-06
-3.67422e-06
3.5632e-09
1.09431e-07
2.55875e-06
3.68637e-06
-3.68289e-06
-3.48135e-09
-3.26981e-09
-6.3706e-08
-3.06346e-06
3.12717e-06
-2.67004e-06
2.70065e-06
-3.06088e-08
-3.65338e-06
3.65457e-06
-1.18951e-09
3.68209e-06
4.27963e-09
-3.67115e-06
-2.29355e-06
3.70894e-06
3.68357e-06
-3.67831e-06
-5.25605e-09
-3.68711e-06
3.6872e-06
-8.80295e-11
3.67662e-06
-3.6733e-06
-3.32206e-09
-3.58083e-07
-3.15361e-06
3.51169e-06
3.67975e-06
3.81223e-09
-3.65623e-06
2.84985e-09
3.6841e-06
-3.67939e-06
-4.7105e-09
2.76796e-06
-2.8345e-06
2.8345e-06
3.68272e-06
-3.67576e-06
-6.96331e-09
-7.15528e-09
3.68421e-06
-5.80909e-09
-2.77167e-06
3.67749e-06
5.23568e-09
-3.68676e-06
-6.90892e-09
-3.65057e-06
3.65253e-06
-1.96738e-09
3.68718e-06
2.00655e-09
6.26233e-08
3.64993e-06
-7.43271e-10
3.68378e-06
9.36092e-09
2.75973e-06
1.44219e-08
4.38858e-10
-3.65422e-06
3.65709e-09
2.81125e-07
1.02863e-08
1.1865e-07
3.6732e-06
-3.67664e-06
3.43719e-09
-3.64669e-06
3.65096e-06
-4.26833e-09
6.61886e-08
-2.76392e-06
2.69773e-06
4.93973e-07
-2.87833e-06
2.38435e-06
1.05235e-06
2.61077e-06
-2.61077e-06
3.67061e-06
-3.67061e-06
-3.01676e-06
1.68046e-09
-3.67753e-06
2.81681e-06
3.68288e-06
8.31156e-09
-6.93589e-07
-1.29191e-06
1.9855e-06
-3.65206e-06
5.37062e-09
-3.65397e-06
-1.18958e-07
1.56153e-06
-2.57592e-06
1.01439e-06
-2.52105e-09
2.50603e-08
3.65115e-06
8.25788e-09
2.76805e-06
-3.6882e-06
7.77908e-09
3.67327e-06
2.34326e-06
-2.85931e-06
5.16048e-07
2.38388e-06
-8.22352e-07
-4.60901e-09
-3.66972e-06
3.68879e-06
-3.66373e-06
-3.67812e-06
-3.64188e-06
3.63841e-06
3.46812e-09
8.42755e-10
3.67962e-06
3.66678e-06
3.82637e-09
3.35065e-06
-2.22459e-06
-1.12605e-06
-1.21753e-08
2.79956e-06
3.67859e-06
5.84857e-09
3.34969e-06
-3.70777e-06
2.50111e-08
3.65103e-06
-4.34929e-09
-3.66844e-06
-3.64619e-06
4.3126e-09
-2.6775e-06
7.46283e-09
2.8142e-06
-2.25669e-06
-5.57516e-07
3.66021e-06
-3.66051e-06
3.00779e-10
-4.30318e-09
1.05648e-06
-1.4847e-06
-1.39014e-06
2.87483e-06
3.66709e-06
-3.67271e-06
5.62577e-09
2.91717e-06
-2.88091e-06
-9.46712e-09
2.79845e-06
-2.40284e-06
1.70925e-06
3.66336e-06
-3.66703e-06
3.6658e-09
3.68449e-06
-3.65947e-06
-2.76041e-06
9.22298e-08
-2.77092e-06
2.76704e-06
3.8808e-09
2.69163e-06
-2.75534e-06
5.87155e-08
3.64869e-06
-2.79772e-06
2.7106e-06
-9.87791e-08
3.6787e-06
-3.67424e-06
-4.46195e-09
2.86373e-06
-2.73519e-06
-1.28544e-07
3.66678e-06
-2.22129e-09
-3.66877e-06
-2.71229e-06
8.79396e-09
3.40305e-07
2.08324e-06
-2.42355e-06
-3.63722e-06
3.63326e-06
3.95935e-09
3.66092e-06
1.29066e-08
-2.31799e-06
-4.85117e-07
2.67944e-08
3.64983e-06
3.67252e-06
-3.68116e-06
8.63516e-09
3.66808e-06
-6.75936e-09
-3.65655e-06
-2.86388e-06
-4.83425e-07
3.67443e-06
7.65897e-09
3.90789e-06
-8.03146e-07
-2.24339e-08
3.6709e-06
-3.64846e-06
3.66913e-06
3.39524e-09
-3.64246e-06
5.23502e-09
-3.65279e-06
-2.63557e-08
-6.97304e-09
3.62175e-06
-3.61478e-06
4.78395e-09
3.66932e-06
3.68498e-06
-3.65818e-06
-3.67327e-06
-1.28252e-08
2.80164e-06
-3.87813e-09
2.77806e-06
-1.42028e-07
-2.63603e-06
3.7632e-08
2.74042e-06
-3.62695e-06
3.61998e-06
-3.67268e-06
-7.97767e-09
2.33143e-06
4.82773e-07
-1.37667e-08
2.84038e-06
-2.82661e-06
-2.35359e-06
-1.96818e-06
2.30848e-06
-3.06895e-06
3.80589e-07
2.68836e-06
3.66773e-06
2.81647e-09
-3.67198e-06
3.66438e-08
3.65215e-06
3.66226e-06
-3.66282e-06
5.50578e-10
3.67027e-06
-3.65932e-06
-1.0947e-08
-3.67521e-06
2.46622e-09
-5.28163e-09
-2.77362e-06
2.77891e-06
5.54032e-10
3.67435e-06
-2.54867e-06
7.4656e-07
-3.67047e-06
3.66837e-06
2.09538e-09
-3.63211e-06
3.62776e-06
4.35086e-09
3.61646e-08
2.99834e-06
-2.91072e-06
2.20074e-06
-5.34338e-08
-1.92175e-08
3.67296e-06
-3.65374e-06
-3.27409e-06
1.7894e-06
3.66645e-06
3.24796e-09
-3.67108e-06
3.67024e-06
9.50939e-09
-3.42952e-06
3.38898e-08
3.39563e-06
5.79305e-09
-3.6379e-06
3.66304e-06
-3.65919e-06
-3.84656e-09
-1.16743e-07
3.68477e-06
-3.56803e-06
-5.51636e-09
-7.54286e-07
3.44862e-06
-2.69433e-06
-2.76041e-06
-3.05155e-06
3.66535e-06
-1.98236e-09
3.23516e-08
3.65213e-06
3.57455e-06
3.70023e-06
-3.6978e-06
-2.42969e-09
7.60665e-10
-2.77942e-06
2.77866e-06
-3.66749e-06
3.66499e-06
2.49762e-09
7.43209e-08
-2.76294e-06
2.68861e-06
3.67232e-06
-3.67083e-06
-1.49478e-09
-2.84335e-06
2.82958e-06
3.66153e-06
-3.6587e-06
-2.8297e-09
1.02936e-08
3.65998e-06
-4.21094e-08
3.68099e-06
-3.66977e-06
3.59344e-08
-2.70597e-06
3.66966e-06
-3.66901e-06
-6.51166e-10
3.66781e-06
2.13965e-09
-3.66927e-06
3.64902e-06
7.71422e-09
-3.65673e-06
8.81283e-10
3.6701e-06
-3.65981e-06
-8.87264e-09
-2.77911e-06
2.78799e-06
1.97144e-06
-2.89992e-06
9.28474e-07
-6.14445e-07
-2.81508e-06
-2.69725e-06
-6.04478e-07
-2.36534e-06
-3.66561e-06
2.12477e-08
3.64436e-06
-2.79593e-06
2.77911e-06
1.68119e-08
-8.50673e-07
-2.24779e-06
-3.66364e-06
3.27066e-06
-3.65608e-06
3.66255e-06
-6.4727e-09
-3.05492e-06
3.02978e-07
2.75194e-06
2.91975e-06
-2.24314e-06
-6.76609e-07
-3.66896e-06
7.39992e-09
3.66156e-06
2.78398e-06
-2.74889e-06
7.71496e-09
3.65533e-06
-3.66932e-06
3.74516e-09
3.66613e-06
3.66552e-06
1.19659e-08
-6.17212e-10
-3.66832e-06
-1.19866e-08
-3.65848e-06
-3.65977e-06
2.78088e-06
-2.74699e-06
-1.56375e-08
7.8423e-07
2.4251e-06
-2.50712e-06
2.50712e-06
3.19653e-08
3.65301e-06
-4.15894e-06
-3.38351e-06
3.38427e-06
3.67054e-06
2.7787e-06
-2.75806e-06
-3.66498e-06
3.65299e-06
-3.09856e-06
3.17288e-06
3.66237e-06
-3.65917e-06
-3.20517e-09
4.47428e-09
3.66618e-06
-3.70905e-06
2.79052e-06
-2.7994e-06
-3.66388e-06
6.1784e-09
1.3808e-06
3.67288e-06
-3.66841e-06
-4.46309e-09
-3.67048e-06
3.66256e-06
-3.6595e-06
-3.05465e-09
-3.66196e-06
-3.65406e-09
3.6541e-06
-3.6429e-06
-2.80136e-06
3.36792e-06
3.65938e-06
-3.6582e-06
-1.18166e-09
-6.47384e-09
3.65549e-06
-2.79593e-06
2.42371e-06
-2.62631e-06
2.02596e-07
-4.51092e-06
4.51092e-06
3.66882e-06
3.66952e-06
-9.30707e-09
6.18907e-09
-3.66834e-06
3.68125e-06
-1.2908e-08
3.66144e-06
-3.65837e-06
-3.07362e-09
-3.03811e-06
2.89353e-06
1.13919e-08
3.65951e-06
-3.66889e-06
9.94405e-09
3.65894e-06
-3.65809e-06
3.66599e-06
-3.66109e-06
-2.80975e-06
-3.66585e-06
1.22969e-08
3.65355e-06
-2.81352e-06
-7.965e-09
2.74563e-06
-2.76602e-06
2.03955e-08
3.65663e-06
-3.65972e-06
3.08169e-09
6.81248e-08
-3.6658e-06
3.6597e-06
6.10063e-09
3.66369e-06
-2.68661e-06
-2.66804e-06
-4.42578e-08
3.66819e-06
-3.66819e-06
-1.86094e-08
2.78657e-06
-3.66613e-06
3.66076e-06
-3.65769e-06
-3.06833e-09
3.66757e-06
-2.05016e-08
-3.66286e-06
-2.72741e-06
-3.36057e-07
-2.79869e-06
2.19054e-06
-2.44695e-06
2.56408e-07
-5.47835e-07
-2.36687e-06
2.9147e-06
3.65398e-06
-3.64428e-06
2.37191e-06
-2.76392e-06
-7.94539e-09
-3.66101e-06
3.66274e-06
-3.6597e-06
-3.04029e-09
2.81405e-06
-2.82819e-06
-7.7288e-07
-5.11908e-07
1.28479e-06
-2.91856e-06
2.94313e-06
2.8242e-06
-2.78657e-06
-1.09951e-08
-2.73885e-06
2.74984e-06
-1.37708e-08
-2.71757e-06
2.73134e-06
9.18355e-09
-2.84958e-06
2.84039e-06
2.60898e-08
-2.86085e-06
2.83476e-06
1.33118e-08
-2.80251e-06
2.7892e-06
-5.10239e-09
-2.74328e-06
2.74839e-06
-5.51898e-09
-2.74106e-06
2.74658e-06
1.64871e-06
-1.11108e-06
-5.37633e-07
2.43295e-06
1.79831e-08
3.65498e-06
2.68092e-06
-2.69762e-06
1.66925e-08
8.61058e-09
-3.66128e-06
3.65267e-06
3.67081e-06
-3.67081e-06
3.62218e-06
-6.87866e-10
-3.62149e-06
-1.23162e-08
-3.65266e-06
3.66049e-06
-3.65729e-06
-3.19295e-09
-2.27534e-06
-2.98719e-06
-6.77299e-08
2.39899e-06
4.64739e-07
3.66791e-06
-3.66288e-06
-5.02096e-09
-2.79195e-06
2.90229e-06
1.2199e-08
3.65791e-06
-2.01319e-06
-1.2609e-06
2.79341e-08
2.62729e-06
-2.65522e-06
-1.87618e-06
-3.18366e-07
-6.29502e-07
-3.89125e-07
1.01863e-06
2.75499e-06
2.7554e-06
2.87549e-06
2.87579e-06
2.85576e-06
2.81818e-06
-1.29154e-08
-2.76157e-06
2.77448e-06
2.76363e-06
-3.90156e-09
-1.08756e-06
3.66168e-06
-3.65306e-06
-9.07746e-08
2.9456e-06
-3.67257e-06
-2.50674e-06
3.10093e-06
3.61759e-06
2.80859e-09
-3.6204e-06
3.67565e-06
-7.45682e-09
-3.66771e-06
1.32202e-08
3.65449e-06
-2.76597e-06
-2.77362e-06
2.77289e-06
-2.78581e-06
-2.52361e-06
3.04685e-06
-5.23236e-07
-6.57189e-09
-3.65928e-06
1.91335e-06
-2.38535e-06
6.04342e-09
-3.66524e-06
-3.66089e-06
-9.7358e-07
-1.42926e-06
-3.65435e-06
-6.93129e-09
2.80581e-06
8.75829e-07
2.13579e-06
3.65693e-06
-3.6541e-06
-2.82355e-09
2.78676e-06
-1.84489e-06
-9.41867e-07
-1.32752e-06
6.98016e-07
-1.53915e-06
3.32854e-06
-1.33389e-06
2.77252e-06
-1.43862e-06
1.23113e-09
3.66585e-06
-3.64075e-06
3.65948e-06
-3.66161e-06
2.13409e-09
-2.07238e-06
8.83335e-07
1.18904e-06
-1.21979e-08
-2.76081e-06
2.77301e-06
3.83269e-06
-1.69573e-06
-2.13696e-06
2.65756e-09
3.61952e-06
-7.96841e-07
-1.27554e-06
-2.6743e-06
2.70224e-06
2.28219e-06
1.50759e-07
-2.66195e-06
-5.60877e-09
-2.76436e-06
2.76997e-06
2.85483e-06
-2.76707e-06
-1.69946e-06
-6.44955e-07
2.34442e-06
-3.65393e-06
3.65498e-06
-1.0555e-09
-2.70122e-06
2.73716e-06
3.65791e-06
-3.66029e-06
-2.44575e-06
-6.13679e-08
-3.6852e-06
3.6713e-06
-1.90792e-06
2.75609e-09
3.65979e-06
3.19144e-06
-1.76376e-06
-1.42767e-06
2.7006e-06
-5.1006e-07
3.01857e-06
-3.91282e-07
2.76868e-06
-2.78088e-06
3.65299e-06
-3.65311e-06
1.20917e-10
2.77121e-06
-2.77681e-06
3.35815e-09
-3.65106e-06
3.6477e-06
-1.53985e-06
-3.68066e-07
8.1403e-09