/*--------------------------------*- C++ -*----------------------------------*\
  =========                 |
  \\      /  F ield         | OpenFOAM: The Open Source CFD Toolbox
   \\    /   O peration     | Website:  https://openfoam.org
    \\  /    A nd           | Version:  12
     \\/     M anipulation  |
\*---------------------------------------------------------------------------*/
FoamFile
{
    format      ascii;
    class       volVectorField;
    location    "0.13";
    object      U;
}
// * * * * * * * * * * * * * * * * * * * * * * * * * * * * * * * * * * * * * //

dimensions      [0 1 -1 0 0 0 0];

internalField   nonuniform List<vector> 
4428
(
(0.000989062 0.000375764 1.01429e-16)
(-0.00100114 0.000414087 -9.03827e-17)
(-0.000908031 0.00041582 0)
(-0.000942516 0.000399154 0)
(0.000905236 0.000754187 8.16392e-17)
(0.000947255 0.000777679 3.24814e-21)
(-0.000901873 0.000524289 0)
(-0.00101047 0.000359647 1.4641e-16)
(0.000976502 0.00040272 -2.49065e-16)
(0.00100936 0.000290104 9.95375e-17)
(-0.000924635 0.000319973 -1.7333e-16)
(0.000924342 0.000398139 -1.76862e-16)
(-0.00104239 0.000215803 -2.03658e-16)
(-0.000320156 0.0011605 -9.58155e-17)
(0.000974169 0.000377963 0)
(0.000892277 0.000325616 0)
(0.00101195 0.000365174 0)
(-0.000924981 0.000319378 0)
(-0.00104795 0.000214482 0)
(0.00098578 0.000376754 0)
(0.000349123 0.000287182 -4.48035e-16)
(-0.000997445 0.000381867 -1.77701e-16)
(-0.000939999 0.000402799 0)
(-0.00103075 0.000347245 0)
(-0.000992719 0.0003792 2.26616e-17)
(-0.000940418 0.000345071 0)
(-0.000952852 0.000510163 1.03356e-16)
(0.000960795 0.000304408 2.07803e-16)
(0.000899373 0.000444359 0)
(-0.00105744 0.000236438 0)
(0.000981903 0.000231484 0)
(-0.00100859 0.000379231 -1.84203e-16)
(0.000995447 0.000316856 -9.00192e-17)
(-0.00102892 0.000502861 -2.77422e-16)
(-1.4379e-05 0.00134951 4.69771e-17)
(-0.001005 0.000393374 1.99862e-16)
(-0.000988889 0.000502134 -4.4183e-21)
(0.000915232 0.0012335 1.27043e-17)
(-0.000139075 0.00117072 -2.62233e-17)
(-0.000944326 0.000415973 0)
(0.000998033 0.000359161 0)
(0.000896083 0.000283338 0)
(0.000943995 0.000320382 9.24316e-17)
(-0.00103068 0.000327662 1.66057e-16)
(0.000985974 0.000305665 0)
(0.000803683 0.000302823 0)
(0.000940822 0.000905907 -9.97835e-17)
(-0.000939351 0.000460539 2.03143e-16)
(-0.000957237 0.000407728 2.24459e-16)
(-0.000986053 0.000436303 0)
(0.00098877 0.000417687 0)
(0.000877629 0.000430073 1.88122e-16)
(0.00101318 0.000291378 -9.13182e-17)
(0.000890189 0.000443343 0)
(0.000913554 0.000390877 -1.39783e-17)
(0.000600715 0.000282241 0)
(0.000885671 0.000424833 -9.29926e-17)
(-0.000958955 0.000308555 0)
(0.000823808 0.000884868 1.8296e-16)
(0.000968902 0.000328452 -1.8201e-16)
(0.00101393 0.000389648 1.67096e-16)
(-0.00101547 0.000321595 0)
(0.000880858 0.000348469 2.79951e-16)
(-0.00100658 0.000377672 9.26979e-17)
(-0.00100276 0.000394158 0)
(0.000924079 0.000405771 0)
(-0.00102652 0.000332798 1.73157e-16)
(-0.00094981 0.000406617 -1.8582e-16)
(0.000956515 0.000339186 -1.82185e-16)
(-0.000978709 0.000425716 -3.61908e-16)
(-0.00103061 0.000318555 -9.16129e-17)
(0.000966102 0.00044162 2.12652e-16)
(0.0010531 0.000465132 5.80504e-17)
(-0.000931619 0.000389834 4.46952e-17)
(0.000984082 0.000345768 1.96649e-16)
(-1.75138e-05 0.00133024 -1.83294e-16)
(0.00101388 0.000466388 0)
(0.00104337 0.000412868 0)
(-0.000912789 0.000528959 -1.18144e-16)
(0.000704285 0.000329866 -4.31661e-21)
(0.000889493 0.000457975 -1.97538e-16)
(-0.00102116 0.000321197 0)
(0.000943557 0.000454546 -1.81063e-16)
(0.000956875 0.000401861 -1.72065e-16)
(0.0010112 0.000363036 3.18304e-16)
(-0.00109885 0.000339653 -2.54689e-16)
(-0.000131521 0.00150531 1.15143e-16)
(-0.0010205 0.000373839 0)
(-0.00100392 0.000382265 -9.60338e-17)
(0.000917203 0.000402786 2.04741e-17)
(0.000985712 0.000293598 8.36648e-17)
(0.00101028 0.000361653 -1.59368e-16)
(-0.00101817 0.00040476 0)
(-0.00101328 0.000377922 0)
(-0.00100329 0.000394836 9.81691e-17)
(-0.000972847 0.000410288 1.67119e-16)
(0.00100104 0.000396307 1.13531e-16)
(-0.00102692 0.000390229 -1.19903e-16)
(-0.0010319 0.000315429 9.28704e-17)
(0.000931423 0.000508774 0)
(0.000932484 0.000427298 -2.25141e-17)
(0.000963742 0.000378941 0)
(0.000988514 0.000347388 0)
(0.000892707 0.000336153 -1.87986e-16)
(0.000877948 0.000415543 -1.03701e-16)
(0.00090782 0.000438362 2.49299e-21)
(0.000967664 0.000398383 1.90326e-16)
(-0.000991434 0.000477945 -1.22455e-16)
(0.00100566 0.000394367 -1.20822e-16)
(0.000939962 0.00047005 0)
(0.000965539 0.000318278 1.64695e-16)
(0.000969926 0.000372108 -1.94804e-16)
(-0.000932286 0.000384483 2.63313e-21)
(0.000919923 0.000350019 1.65964e-16)
(-0.000562141 0.000353119 1.15542e-16)
(-0.00102998 0.0003106 1.80233e-16)
(-0.000222068 0.00129669 0)
(0.000401199 0.000313554 5.24746e-17)
(-0.00104104 0.000341679 8.8765e-17)
(0.0010412 0.000407652 -1.1286e-16)
(0.00103892 0.000403761 2.11531e-16)
(-0.000913668 0.000533089 2.41277e-16)
(0.000670831 0.00109779 -1.96896e-16)
(0.000987608 0.00032063 -3.03619e-16)
(4.4102e-06 0.00134995 1.78759e-16)
(-0.00100762 0.0003779 0)
(-0.00102255 0.000340072 -2.72257e-16)
(0.000929398 0.000392267 9.95088e-17)
(-0.00100326 0.000409828 -3.041e-16)
(-0.00100583 0.000392206 9.66767e-17)
(-0.00103 0.000321481 -1.87132e-16)
(-0.000985537 0.000407145 0)
(0.000996949 0.00039903 2.24126e-16)
(0.000951677 0.000359488 0)
(0.000965911 0.0003763 0)
(0.00103252 0.000445786 6.53829e-21)
(0.00102553 0.00042906 -2.4367e-16)
(-0.00102791 0.00031473 -1.82388e-16)
(-0.00100812 0.000387591 -1.8355e-16)
(-0.000997874 0.00040449 1.43948e-16)
(-0.000995762 0.000483643 -1.23706e-16)
(-0.00100828 0.00036434 -9.67483e-17)
(0.00095094 0.000382168 0)
(0.000957416 0.00038758 -1.99429e-16)
(0.00100123 0.000374539 0)
(0.000945746 0.000364468 9.67645e-17)
(0.00102011 0.000464659 1.28474e-16)
(-2.44391e-05 0.000958088 -9.13947e-17)
(0.00106117 0.000284283 2.88888e-16)
(-8.66232e-06 0.00134621 4.54408e-17)
(-0.00100693 0.000378102 -1.99513e-16)
(-0.000653619 0.000293587 1.00284e-16)
(0.00094978 0.000302673 -9.62849e-21)
(0.00105916 0.000362818 -2.48624e-16)
(-0.00100513 0.000391905 2.91595e-16)
(0.00102005 0.000379594 0)
(0.000927914 0.000623418 -1.77127e-16)
(0.000992975 0.000293394 -9.48483e-17)
(0.000981375 0.000353184 -1.78767e-16)
(-0.00101601 0.000327942 -9.12344e-17)
(-0.00100068 0.000416412 1.95447e-16)
(0.000974582 0.000385714 0)
(0.00105248 0.000324351 0)
(-0.000352693 0.000158013 -2.17178e-16)
(-0.00106174 0.00044796 1.19564e-16)
(-0.00102891 0.000318149 0)
(-0.00100327 0.000367468 0)
(0.00105084 0.000338985 0)
(-0.00100328 0.000386263 1.9252e-21)
(-0.00100944 0.000435088 9.36787e-17)
(-0.0010279 0.000334676 -9.37998e-17)
(0.00100636 0.000400221 3.98883e-21)
(-0.0010107 0.000379824 0)
(0.00090616 0.000383168 0)
(0.00092666 0.00120366 -1.16375e-17)
(-0.00107239 0.000453548 2.29078e-16)
(0.00101437 0.00036494 0)
(0.000882841 0.000450712 2.1459e-16)
(0.000951223 0.000405828 2.1794e-16)
(-0.00107136 0.000444248 1.14319e-16)
(-0.00013047 0.00135352 -7.03607e-21)
(-0.000971983 0.000402374 1.75079e-16)
(-0.00101398 0.000355003 1.91952e-16)
(0.000930282 0.000355551 0)
(-0.00100628 0.000378542 3.00573e-16)
(-0.000998131 0.000467215 -9.52173e-17)
(0.000996416 0.000386637 0)
(-0.00100367 0.000391058 0)
(0.000856348 0.000365255 3.43572e-16)
(0.000986848 0.000439587 0)
(0.000974137 0.000354827 0)
(0.00101648 0.000492474 2.58471e-17)
(0.000988853 0.000349897 0)
(0.000998111 0.000425409 -3.67874e-16)
(-0.00097324 0.000464958 0)
(-0.00097015 0.000460278 -1.80868e-16)
(-0.000969517 0.000459029 2.70925e-16)
(-0.000958187 0.000450504 8.88779e-17)
(0.00136795 0.000792715 1.48758e-16)
(-0.000311245 0.00143311 0)
(0.000992131 0.000451213 2.13764e-16)
(-0.00101327 0.000366695 -1.94081e-16)
(0.000787678 0.000421102 -1.90309e-16)
(-0.00101985 0.000328539 0)
(0.00090234 0.000351344 -1.76632e-16)
(0.00098112 0.000344713 -2.9806e-18)
(-0.00100122 0.000387607 9.32586e-17)
(-0.000222756 0.00155498 -1.77909e-16)
(-0.00049537 0.00134712 1.11841e-17)
(0.000665387 0.000348498 0)
(0.00100479 0.000433306 0)
(0.00109148 0.000383634 0)
(0.000999394 0.000419849 5.93956e-21)
(-0.00101157 0.000355751 0)
(0.000978146 0.000367444 0)
(-0.000981305 0.000455129 -1.40089e-16)
(-0.000971483 0.000449045 1.83785e-16)
(2.81084e-05 0.0013476 -1.84693e-16)
(-0.000946959 0.000365305 1.993e-16)
(-0.000965771 0.000456582 -4.53595e-17)
(0.000998473 0.000416026 1.95365e-16)
(0.00105578 0.000366709 -6.1512e-17)
(-0.000997706 0.000388862 1.8547e-16)
(0.00102866 0.000448842 0)
(-0.000973561 0.000458919 0)
(-0.00100589 0.000379318 0)
(-0.00101576 0.000388775 -1.08727e-16)
(0.000973433 0.000349725 -1.93044e-16)
(0.000928526 0.000391136 3.76626e-21)
(-0.00100301 0.000390761 0)
(-0.00100652 0.000365822 9.83246e-17)
(-0.000619806 0.00123023 0)
(0.000847286 0.000521912 0)
(0.000153732 0.00149166 8.61753e-17)
(0.000945502 0.000383072 5.7463e-17)
(-0.000980226 0.000443891 0)
(-0.000975908 0.000452583 0)
(-0.000975819 0.000449266 1.88218e-16)
(-0.000979393 0.000447338 -1.86175e-16)
(-0.00101788 0.000334545 2.97771e-16)
(-9.97149e-05 0.000255772 5.13889e-17)
(-0.00103553 0.000400608 -5.90068e-17)
(-0.000960236 0.000450365 6.23706e-17)
(0.000978356 0.000387661 2.23736e-17)
(-0.00100982 0.000358855 -9.62589e-17)
(-0.000275718 0.0010112 -1.01156e-16)
(-0.00099816 0.000478134 1.89327e-16)
(-0.00101237 0.000361527 1.92817e-16)
(0.00116286 0.000776952 0)
(-0.000112717 0.00101418 0)
(-0.00105234 0.000434159 6.08711e-21)
(0.000954885 0.000379871 2.04396e-16)
(0.00100354 0.000416307 -1.0565e-16)
(-0.000972862 0.00044861 1.81889e-16)
(0.000869288 0.0003222 -1.31318e-16)
(0.000174122 0.000117142 1.07918e-16)
(-0.000976067 0.000449615 -3.6559e-16)
(1.33944e-05 0.00133827 0)
(-0.00114985 0.000410951 -3.66791e-17)
(-0.000983435 0.000446279 -2.11764e-16)
(-0.000980295 0.000447202 1.90021e-16)
(-0.000348733 0.000175732 2.17219e-16)
(-0.00100566 0.000368174 0)
(0.00106549 0.000224265 1.23014e-16)
(-0.00097556 0.000446532 -9.37854e-17)
(-0.000999447 0.000387874 -1.00073e-16)
(0.00101067 0.000366407 0)
(-0.000976905 0.000448423 0)
(-0.000678275 0.00148254 1.37278e-16)
(-0.0010373 0.000350844 -1.83738e-16)
(0.000976453 0.000336768 0)
(0.00101831 0.000470393 2.37181e-16)
(0.000974542 0.000388384 1.23125e-17)
(-0.00020115 0.0010889 2.58443e-16)
(-0.00100654 0.000380499 0)
(0.000949728 0.000404262 1.98133e-16)
(0.000985137 0.000373582 -2.63564e-16)
(-0.00100777 0.000364808 1.94298e-16)
(0.00104323 0.000498453 0)
(0.000166919 0.000114057 -1.10466e-16)
(-0.00109368 0.000456855 -2.46736e-22)
(-0.000176341 0.00138019 9.63414e-17)
(0.000977475 0.000368498 0)
(-0.00101583 0.000339448 -2.99178e-16)
(0.000906581 0.000514265 3.93348e-16)
(0.000889617 0.000516911 -9.12447e-17)
(0.00098685 0.000386877 -1.32951e-17)
(0.000989858 0.000334795 -1.26248e-16)
(0.000990129 0.000391663 1.94439e-16)
(0.000995915 0.000367677 0)
(-0.00110447 0.000333518 1.4358e-16)
(-0.00104253 0.000340017 -1.87093e-16)
(-0.000984627 0.000438655 -7.47202e-19)
(0.000935227 0.000452206 0)
(0.000917276 0.000401634 2.14673e-16)
(0.00031771 0.000112613 2.31986e-16)
(-0.00100022 0.000372859 1.95535e-16)
(-0.000974036 0.000445534 2.07964e-16)
(-0.000997106 0.000453112 0)
(-0.00061562 0.00144672 1.96764e-16)
(-0.00101008 0.000367096 5.90891e-21)
(0.000933277 0.00034977 1.14695e-16)
(-0.00100472 0.000370044 0)
(-0.000980946 0.000445627 -1.18784e-17)
(-0.000979839 0.000448554 0)
(-0.000979042 0.000448151 -1.85913e-16)
(-0.00100843 0.000392337 0)
(-0.000138257 0.00148799 -1.19593e-16)
(0.000660843 0.000370944 -3.4456e-16)
(0.000971374 0.000496343 1.25598e-16)
(-0.0010074 0.000367882 9.79717e-17)
(0.000962421 0.000380274 0)
(0.00102863 0.000486893 -1.26567e-16)
(-0.000169444 0.00146627 -1.90456e-16)
(0.000604674 0.000203331 -2.23907e-16)
(0.00097525 0.000399841 0)
(0.000997342 0.000440811 0)
(0.000968187 0.000411785 -1.87617e-16)
(-0.00101406 0.000345077 0)
(-0.00100045 0.000381899 1.96572e-16)
(-0.000248497 0.0016144 -6.17611e-18)
(-0.00106131 0.000457035 -1.01492e-16)
(-0.000928517 0.000357003 6.10883e-17)
(0.000957792 0.000371255 3.89326e-16)
(-0.000713274 0.0021969 -1.46079e-16)
(0.00163809 0.000645391 -1.97878e-16)
(0.000929383 0.000424414 -2.12586e-16)
(-0.000993832 0.000385671 9.64312e-17)
(-0.000994895 0.000464236 -1.21775e-17)
(-0.000972145 0.000452116 -1.89496e-16)
(0.000972554 0.000371136 2.09791e-16)
(-0.000999141 0.000375722 0)
(-0.00100489 0.000370945 9.90856e-17)
(-0.00114858 0.000407625 1.5096e-16)
(-0.00100856 0.000479104 0)
(-0.000993696 0.00045529 0)
(0.00102984 0.000477096 -1.23284e-16)
(0.000923569 0.000355994 0)
(-0.00100514 0.000379212 0)
(0.000937377 0.000352422 0)
(-0.000980539 0.000447186 1.18325e-17)
(-0.00099204 0.000442073 7.54742e-19)
(0.000909815 0.000300551 0)
(0.000983964 0.000368505 1.92892e-16)
(-1.37623e-05 0.00134766 0)
(0.000977893 0.000323373 0)
(-0.00100881 0.000370461 4.92542e-17)
(-0.0010143 0.00036258 -3.01486e-16)
(0.000100984 0.000596375 0)
(-0.000997564 0.000384278 -1.9342e-16)
(-0.00104463 0.000231704 9.23827e-17)
(-0.00105145 0.000409809 -4.33711e-21)
(-0.00107228 0.000360845 -2.43399e-16)
(-0.00114931 0.000399291 1.51162e-16)
(-0.000982841 0.000465604 0)
(-0.00101555 0.000350914 2.02117e-16)
(-0.000996947 0.000383028 1.00296e-16)
(0.00098072 0.000370314 0)
(-0.000987406 0.000340684 1.62547e-16)
(-0.00100141 0.000373659 -2.68742e-16)
(2.19589e-06 0.00130814 0)
(-0.000976075 0.000443464 -2.80439e-16)
(-0.00100793 0.000416019 0)
(-0.0010082 0.000375223 0)
(0.00099724 0.00036661 2.03119e-16)
(-0.00100473 0.000367678 1.01386e-16)
(0.000874832 0.000316238 2.14784e-16)
(0.000994698 0.000401178 -2.03933e-16)
(-0.000705742 0.00034268 0)
(-0.00106551 0.00035779 0)
(-0.000998182 0.000384398 0)
(0.000977105 0.000380173 -2.12711e-16)
(0.000993418 0.000427628 0)
(0.000986473 0.000374746 0)
(-0.00106992 0.000464041 -2.99366e-16)
(0.000147211 0.00132046 2.17988e-16)
(-0.000987139 0.000460681 1.92281e-16)
(0.00101967 0.00031308 -2.15591e-16)
(-1.69497e-05 0.000699161 -6.19436e-17)
(-0.00100375 0.000391426 0)
(-0.00100047 0.000425265 2.99758e-16)
(-0.000958555 0.000453109 -1.80341e-16)
(0.000102826 0.0010247 1.08288e-16)
(0.00104208 0.000211157 0)
(0.00107646 0.000278539 1.14708e-16)
(0.000943748 0.000401961 1.77803e-16)
(-0.000201196 0.00015264 2.10734e-16)
(-0.00100101 0.00037088 -9.03939e-17)
(0.000985955 0.000390354 0)
(0.000612141 0.000230626 0)
(0.000845497 0.000258631 3.86493e-16)
(-0.000999386 0.000385168 0)
(0.00103702 0.000332882 -1.0723e-16)
(-0.0010714 0.000278307 1.26095e-16)
(-0.00100646 0.0003834 9.58128e-17)
(0.000953101 0.000381707 -1.95169e-16)
(-0.0011341 0.000425868 -1.35982e-16)
(-0.000946283 0.000397837 1.849e-16)
(-0.0010946 0.000503849 1.01009e-16)
(-0.000747748 0.00029494 -1.08944e-16)
(-0.00100846 0.000380785 0)
(-0.00100435 0.000381911 0)
(-6.73492e-05 0.000503355 0)
(5.13666e-06 0.00130514 -2.50983e-16)
(-0.00106916 0.000374568 0)
(-0.00101253 0.000498547 -8.72311e-17)
(0.000973534 0.00037491 3.76167e-16)
(0.000934427 0.000396445 -1.11176e-16)
(0.000974292 0.000346439 3.79532e-16)
(0.000986206 0.000412062 -5.49159e-17)
(0.000979577 0.000371832 -5.54973e-21)
(-0.000995056 0.000401261 -4.91294e-17)
(-0.000997776 0.000388915 -9.63676e-17)
(-8.16578e-05 0.00154196 5.97396e-18)
(-0.00100128 0.00038611 -1.95298e-16)
(-0.000994694 0.000416261 -5.15035e-17)
(0.000933342 0.000405358 0)
(-0.00100391 0.000385693 -9.75878e-17)
(-0.00107055 0.000398144 -3.58925e-16)
(-0.000977782 0.00043957 -1.39396e-17)
(-0.00100876 0.000377086 0)
(-0.00101758 0.000329157 4.835e-17)
(-0.00100363 0.000371578 -9.87676e-17)
(0.00106402 0.000468808 -2.08725e-16)
(-0.000995952 0.000395112 -9.94725e-17)
(0.000138986 0.0014889 6.96557e-18)
(0.000955109 0.000347272 2.44313e-17)
(-2.84694e-05 0.00146514 -1.98861e-16)
(-0.0011112 0.000460883 2.82354e-16)
(-0.000968878 0.000327066 -3.98532e-16)
(0.000978108 0.00037753 1.03055e-16)
(-0.00111268 0.000461293 1.25937e-16)
(0.000146705 0.000764024 8.11336e-17)
(-0.000993208 0.000393634 1.97982e-16)
(0.000950773 0.000325281 1.76672e-16)
(-1.09119e-05 0.00143777 0)
(-2.62596e-05 0.00127271 -2.83928e-16)
(-0.000996691 0.000412114 -1.57229e-16)
(0.000965074 0.000329079 -5.19588e-17)
(-1.12981e-05 0.00143396 7.90279e-19)
(0.00117266 0.000466551 9.76716e-17)
(-0.000922294 0.000369455 2.953e-16)
(-0.00100677 0.000382492 -5.09889e-17)
(-0.00101899 0.000360163 0)
(-0.00104321 0.0003814 2.29033e-16)
(0.00096612 0.00039053 -2.02298e-16)
(-0.000998045 0.000389756 -9.6802e-17)
(0.000963662 0.00038163 0)
(-2.30809e-06 0.00142614 -2.01874e-16)
(-0.00106631 0.000407929 1.2077e-16)
(0.00112298 0.00100689 -3.6633e-16)
(0.00099147 0.000377497 0)
(-6.37558e-06 0.00142634 0)
(0.00101776 0.000408194 5.9473e-21)
(4.19314e-06 0.00142221 -2.02112e-16)
(2.25427e-06 0.00142583 4.01906e-16)
(-0.000995023 0.000390571 4.98496e-17)
(-8.89043e-05 0.00146883 1.97709e-16)
(-3.8057e-06 0.00142113 0)
(-9.19606e-06 0.00142786 2.01157e-16)
(-0.000995972 0.000388325 0)
(0.00114789 0.000639126 0)
(4.63688e-06 0.00142414 0)
(-2.22476e-06 0.00142396 -2.01441e-16)
(-0.000992949 0.000407578 0)
(-5.07689e-06 0.001425 4.05276e-16)
(-0.00100469 0.000380606 0)
(-2.10193e-06 0.00142485 -2.02421e-16)
(-0.000996942 0.000388431 -2.93185e-16)
(-2.52435e-06 0.00142019 0)
(-0.000987103 0.00040951 9.67033e-17)
(-0.000450012 0.00162946 -4.71371e-17)
(0.00104455 0.000469291 2.50259e-16)
(0.00106903 0.000401535 0)
(2.85726e-07 0.00142374 1.45297e-20)
(-5.5821e-06 0.00142586 -1.99391e-16)
(-0.00101376 0.000333637 -8.51754e-17)
(0.000953245 0.000427568 -2.05745e-16)
(0.000859731 0.000349351 0)
(0.000973018 0.000373829 3.10265e-16)
(-1.05972e-06 0.00142418 2.02e-16)
(-0.000993431 0.00038981 0)
(-3.50486e-05 0.00144002 2.00565e-16)
(-1.01929e-06 0.00142093 0)
(-2.44867e-06 0.00142312 -2.04881e-16)
(-0.00100048 0.000389929 0)
(0.000980234 0.000420977 1.95268e-16)
(-0.00100385 0.000384003 2.68307e-21)
(3.60242e-07 0.00142052 2.02886e-16)
(0.000993981 0.000364399 -4.19352e-16)
(0.000149176 0.000843681 0)
(-5.1394e-06 0.00142573 0)
(0.00110358 0.00051 1.46625e-16)
(0.000975093 0.000339854 0)
(-0.000111553 0.00152802 0)
(-0.00100313 0.000379653 -3.52292e-16)
(-3.82638e-05 0.00145877 0)
(-0.000997756 0.00038907 9.75577e-17)
(-0.000846207 0.000722726 -5.25378e-17)
(-0.000993163 0.000407871 2.01113e-16)
(3.49198e-07 0.00142157 -4.04627e-16)
(-0.00101973 0.000373782 5.41576e-17)
(-0.000986518 0.000409533 1.92965e-16)
(-1.75247e-06 0.00142249 0)
(-3.49074e-06 0.00142034 -1.9825e-16)
(0.00092054 0.000311255 0)
(4.52756e-07 0.00142344 -2.04208e-16)
(8.88404e-07 0.00142209 0)
(-6.67638e-05 0.00147887 2.01277e-16)
(2.20344e-06 0.00127873 -2.27206e-16)
(-0.000972825 0.000418348 1.17407e-16)
(-2.06064e-05 0.00144255 9.81736e-20)
(0.000707989 0.000207783 0)
(-0.00102655 0.000375352 7.99855e-17)
(-0.000969198 0.000413903 4.68856e-17)
(3.01544e-06 0.00141973 4.05017e-16)
(-5.65514e-06 0.00142504 2.01602e-16)
(-0.00101868 0.000392008 -4.66002e-16)
(8.9974e-07 0.0014221 2.02684e-16)
(0.000899653 0.000285475 6.69515e-21)
(-7.31211e-06 0.00142233 2.00603e-16)
(-0.00100735 0.000382737 0)
(-0.000992001 0.000398549 5.12182e-17)
(-7.65709e-07 0.00142274 -1.45963e-20)
(0.000967823 0.000481615 2.10083e-16)
(-0.00100156 0.000390861 -1.02842e-16)
(-0.000987862 0.000407672 -8.99e-17)
(-3.52892e-06 0.00142439 -2.01525e-16)
(0.000972969 0.000381627 3.51596e-18)
(-1.94754e-07 0.00142331 -1.46004e-20)
(-0.00101042 0.000381506 4.80867e-17)
(4.59703e-06 0.00142077 0)
(-0.00100406 0.000379384 0)
(-8.28362e-06 0.00142443 -2.01467e-16)
(7.19673e-07 0.00142309 2.02266e-16)
(0.000970931 0.000404172 -2.4528e-17)
(-0.00102329 0.000351393 2.19721e-16)
(-7.535e-06 0.00142255 1.99773e-16)
(1.77455e-06 0.00142056 0)
(-0.000994909 0.000404149 0)
(-0.000990461 0.000407537 1.53403e-16)
(-0.00102286 0.000325152 0)
(-5.27714e-05 0.000878108 -1.08309e-16)
(-2.67423e-07 0.00142319 2.02711e-16)
(-0.000988103 0.00040628 -1.45373e-16)
(-0.000996126 0.000390487 0)
(-0.00099163 0.000377405 5.30129e-17)
(-1.33119e-05 0.00142739 1.97008e-16)
(7.63376e-08 0.0014211 -1.46736e-20)
(-0.000998736 0.00038176 -5.14129e-17)
(0.000578736 6.97127e-05 -2.18994e-16)
(-1.26819e-05 0.00143054 -2.00427e-16)
(-4.09693e-06 0.0014248 2.02105e-16)
(2.00005e-06 0.00142127 2.02983e-16)
(-1.86704e-07 0.00142593 -2.00157e-16)
(0.00118707 0.000602519 -1.92048e-16)
(-8.51388e-06 0.00142255 -2.0111e-16)
(-0.00100603 0.000379657 0)
(-0.000986786 0.000368133 0)
(0.000949116 0.000368828 0)
(-2.18969e-06 0.00142099 -2.03571e-16)
(-0.000986735 0.000409015 2.48143e-16)
(0.000966136 0.000358866 -1.57151e-16)
(-0.000953264 0.000386707 2.71354e-16)
(-0.00099789 0.000388184 -1.96917e-16)
(-0.000999435 0.00038636 -1.01263e-16)
(-0.00107773 0.000507273 -1.00455e-16)
(-4.20119e-06 0.00142163 -4.05795e-16)
(3.89721e-06 0.00142111 8.46292e-20)
(-0.00100163 0.000414709 -5.80049e-17)
(-0.00100012 0.000400886 4.5996e-17)
(-0.000999828 0.00038844 -5.05269e-17)
(5.73425e-06 0.00142285 -2.02618e-16)
(1.19115e-06 0.00142109 4.10228e-16)
(-7.0074e-06 0.00142262 -2.02962e-16)
(1.21077e-06 0.0014226 -7.95372e-19)
(-0.000997429 0.000395155 4.91296e-17)
(-4.92597e-06 0.00142171 0)
(6.82291e-06 0.00142214 -2.03785e-16)
(4.61581e-06 0.00142061 2.02751e-16)
(5.88932e-06 0.00142293 3.5053e-20)
(-0.00100047 0.000378071 1.0207e-16)
(-7.9995e-06 0.00143049 0)
(-0.00100179 0.000380969 -2.00617e-16)
(-0.00102956 0.00037175 0)
(0.000979857 0.000375021 -2.2246e-16)
(-5.80652e-07 0.00142196 -1.57905e-18)
(0.000934983 0.000376465 1.97903e-16)
(9.04277e-07 0.00142191 -1.45344e-20)
(-8.6527e-05 0.00145936 0)
(-5.80079e-05 0.00144097 -1.99272e-16)
(-0.00100168 0.000382187 0)
(-0.00100962 0.000380929 -9.86565e-17)
(9.77726e-06 0.00142091 0)
(-0.00099382 0.000384937 -2.14074e-16)
(-0.00099873 0.00039118 -1.06355e-16)
(0.000974777 0.000388356 2.13742e-16)
(5.51303e-07 0.00142157 -2.03085e-16)
(-8.18164e-06 0.00142266 -2.03161e-16)
(-0.00100353 0.000397072 5.55539e-17)
(-1.56243e-06 0.00142204 -2.00308e-16)
(-0.000989893 0.000375973 3.11587e-16)
(-6.6566e-06 0.00142143 -2.02292e-16)
(2.02438e-06 0.00142224 -1.45605e-20)
(-0.000997177 0.000430098 -2.36561e-16)
(-8.97453e-06 0.0014224 2.00631e-16)
(0.000981624 0.000370989 0)
(-0.000997205 0.000390141 -5.02513e-17)
(-5.047e-07 0.00142167 3.18893e-18)
(-0.00100417 0.000375762 1.00775e-16)
(-2.48078e-07 0.00142124 -1.60074e-18)
(-0.000997511 0.000382989 5.04606e-17)
(-0.000945828 0.000349595 0)
(3.76564e-06 0.00142231 -1.46333e-20)
(-0.00108796 0.000459124 3.00918e-16)
(8.64367e-07 0.00142301 2.04471e-16)
(0.000909914 0.000455558 -5.87777e-17)
(-0.000963305 0.000424214 1.95206e-16)
(-3.08085e-07 0.0014221 2.04617e-16)
(0.000726703 0.000287125 2.15027e-16)
(-1.85554e-06 0.00142216 2.03322e-16)
(1.13502e-06 0.00142203 3.17272e-18)
(0.00083282 0.00030467 2.27233e-16)
(0.000892171 0.000315219 -2.12541e-16)
(0.00101468 0.000399843 0)
(-0.00107374 0.000438312 0)
(-8.25287e-06 0.0014223 -1.59109e-18)
(0.000925497 0.000351498 2.79972e-16)
(-8.01151e-06 0.00142148 -1.57973e-18)
(-0.000999656 0.000387228 -9.82432e-17)
(0.000912111 0.000307209 0)
(7.4937e-06 0.00142172 -4.05557e-16)
(1.23412e-06 0.00142182 -4.08073e-16)
(-0.000994517 0.000401151 0)
(-0.00100059 0.000377505 0)
(8.59034e-07 0.00142293 -4.05523e-16)
(-2.83783e-05 0.00143646 0)
(-0.000991557 0.00041273 -1.95481e-16)
(-1.90683e-05 0.00142998 -4.00517e-16)
(-0.00090906 0.000330526 0)
(0.00103188 0.000322121 5.24852e-17)
(8.43134e-08 0.00142033 -1.60741e-18)
(3.25836e-06 0.00142335 2.04313e-16)
(0.000777828 0.000484979 -7.03681e-18)
(3.82606e-07 0.00142179 -2.04794e-16)
(-0.00100609 0.000370858 1.57438e-16)
(-0.00107163 0.00049386 1.38984e-16)
(-8.87359e-06 0.00142206 2.0187e-16)
(-0.00100378 0.000375297 1.45749e-16)
(-1.55674e-06 0.00142246 2.04815e-16)
(-8.28096e-06 0.00142165 -2.02607e-16)
(-9.3181e-06 0.00142187 -2.01909e-16)
(-0.000990707 0.00040299 0)
(-0.00100219 0.000376618 -4.98686e-17)
(-1.00334e-06 0.00142155 -7.98791e-19)
(8.50818e-06 0.00142215 0)
(-0.000989287 0.000402433 1.9869e-16)
(-0.000998095 0.000376715 0)
(1.28849e-06 0.00142181 -2.03403e-16)
(-6.92124e-06 0.00142638 3.16234e-18)
(0.000973149 0.000377986 -2.14737e-16)
(1.29725e-06 0.00142196 -4.10856e-16)
(-0.001075 0.000418537 3.41579e-16)
(-5.29071e-07 0.00142192 0)
(-4.42382e-07 0.00142225 2.02762e-16)
(-2.79291e-07 0.00142207 0)
(-3.83856e-08 0.00142189 2.02822e-16)
(1.06236e-06 0.00142173 -2.02309e-16)
(0.000825145 0.000325249 1.21378e-16)
(3.77585e-07 0.00142146 2.02451e-16)
(6.56492e-07 0.00142472 -1.46586e-20)
(-1.05673e-08 0.0014219 2.04804e-16)
(-9.66994e-06 0.00142212 4.04651e-16)
(-0.00100214 0.000383108 0)
(-0.00100163 0.000385754 -5.2528e-17)
(-8.43014e-06 0.00142184 0)
(-1.9288e-07 0.00142197 0)
(-9.90716e-07 0.00142138 -2.06615e-16)
(8.51177e-06 0.00142256 2.03101e-16)
(7.04745e-06 0.00142258 2.03866e-16)
(-0.000999187 0.000389791 2.57699e-16)
(7.59205e-06 0.00142192 2.03297e-16)
(-5.47119e-07 0.00142225 -2.04796e-16)
(-1.35553e-06 0.00142202 0)
(-3.76708e-07 0.0014219 -1.4707e-20)
(-0.00100147 0.000385757 1.00377e-16)
(8.43278e-06 0.00142208 0)
(7.98052e-06 0.00142159 2.03439e-16)
(-3.36466e-06 0.00142466 -2.05259e-16)
(-0.00100665 0.000375303 0)
(-8.74546e-09 0.00142194 0)
(0.000982263 0.000378073 -2.13233e-16)
(-1.66385e-07 0.0014229 1.59881e-18)
(-1.37108e-07 0.00142323 -3.98543e-19)
(-6.8528e-06 0.00142073 -7.92076e-19)
(-9.37427e-06 0.00142168 1.46024e-20)
(-7.53305e-06 0.00142107 7.92724e-19)
(-0.00100516 0.00044269 -1.24097e-16)
(-9.01151e-06 0.00142096 2.03613e-16)
(4.76793e-06 0.00142193 0)
(-8.83841e-06 0.00142116 2.02165e-16)
(-8.96182e-06 0.00142145 -2.02511e-16)
(-9.45166e-06 0.00142205 -2.03451e-16)
(-0.00120808 0.000988654 -3.08467e-16)
(-0.000229972 0.000284357 -3.843e-16)
(8.701e-06 0.00142224 -2.03716e-16)
(-8.57502e-07 0.00142191 -2.03074e-16)
(1.00293e-07 0.00142222 -2.03028e-16)
(7.82308e-06 0.00142157 2.03501e-16)
(-0.00100659 0.000379712 -2.02476e-16)
(-1.00327e-05 0.00142141 2.02143e-16)
(-8.48482e-07 0.00142215 -2.02693e-16)
(-6.53158e-06 0.00142487 -4.03172e-16)
(-7.33873e-07 0.0014217 -1.60332e-18)
(9.29552e-06 0.00142168 2.02731e-16)
(0.000974614 0.000373683 2.13267e-16)
(-3.01828e-06 0.0014226 -2.02732e-16)
(5.57961e-07 0.0014219 -1.45909e-20)
(0.00103865 0.000428207 -2.63008e-16)
(-3.05084e-07 0.00142185 0)
(-6.20897e-07 0.00142189 0)
(-9.99619e-06 0.00142168 -4.06258e-16)
(-0.00100157 0.00038431 1.00718e-16)
(1.88287e-07 0.00142106 -4.00498e-19)
(-1.15871e-05 0.00142215 2.12282e-19)
(0.000979917 0.000368316 1.41757e-17)
(-1.06537e-05 0.00142285 2.03078e-16)
(1.05511e-05 0.0014222 2.03051e-16)
(9.67166e-06 0.00142195 -2.02903e-16)
(2.40975e-06 0.00142184 -2.03474e-16)
(-1.133e-05 0.00142228 1.45956e-20)
(-0.0010401 0.000367763 -2.15477e-16)
(-0.000848226 0.00032482 2.65481e-16)
(-1.04096e-06 0.0014205 -1.46753e-20)
(-6.43241e-07 0.00142185 -2.02592e-16)
(-0.000992813 0.000403688 5.11242e-17)
(9.03358e-07 0.00142192 -1.47073e-20)
(-1.04496e-05 0.00142121 8.0516e-19)
(1.04897e-05 0.00142169 -4.06047e-16)
(4.75392e-06 0.00142035 2.03836e-16)
(8.89918e-06 0.00142138 -2.03834e-16)
(8.7564e-06 0.00142168 -2.03828e-16)
(1.04763e-05 0.00142187 2.03128e-16)
(8.71573e-06 0.00142148 1.98681e-19)
(1.03983e-05 0.00142192 0)
(0.000982269 0.000371421 0)
(-8.46092e-06 0.00142202 2.04491e-16)
(-6.82069e-07 0.00142351 0)
(1.88402e-06 0.00142297 2.03739e-16)
(1.04201e-05 0.00142186 0)
(1.03748e-05 0.001422 2.03196e-16)
(1.05144e-05 0.00142175 -9.91925e-20)
(1.12704e-06 0.00142298 1.99366e-16)
(9.44291e-06 0.00142249 0)
(-2.64316e-06 0.00142332 0)
(-8.77538e-06 0.00142311 -2.04711e-16)
(-0.000999179 0.000386462 -2.47073e-21)
(9.25354e-06 0.00142183 0)
(-2.10574e-05 0.00144614 0)
(9.0993e-06 0.00142186 0)
(-0.000977552 0.000372758 1.57172e-16)
(7.28624e-07 0.00142199 -2.02845e-16)
(-6.52836e-06 0.00142489 2.04684e-16)
(9.51439e-06 0.0014227 -9.94061e-20)
(-0.000977943 0.000410079 5.56772e-17)
(-0.000993841 0.000403996 -5.08325e-17)
(8.33259e-06 0.00142242 -2.03823e-16)
(-2.46279e-06 0.00141969 0)
(-3.52836e-07 0.0014244 -2.03903e-16)
(8.43491e-06 0.00142253 1.46481e-20)
(1.04781e-05 0.00142167 -2.03662e-16)
(-1.10527e-06 0.00141873 4.05046e-16)
(0.000949126 0.000318188 -3.65598e-16)
(0.000980555 0.000380273 -4.30924e-16)
(-1.43047e-06 0.00142238 4.07256e-16)
(0.000967375 0.000380968 0)
(8.23931e-06 0.00142253 0)
(1.06398e-05 0.00142148 -3.97002e-19)
(-0.00102115 0.000404382 -1.84024e-16)
(-0.000997457 0.000408473 1.05907e-16)
(6.60615e-07 0.00142134 -1.00205e-19)
(8.31708e-06 0.00142266 2.03874e-16)
(8.91462e-07 0.00142191 -2.03133e-16)
(-0.000911769 0.0008721 1.02778e-16)
(7.87448e-06 0.00142249 7.96857e-19)
(-1.02058e-05 0.00142269 2.03304e-16)
(-8.34893e-07 0.00142387 2.04075e-16)
(-0.00113923 0.000583241 -2.01503e-16)
(8.13552e-06 0.00142295 0)
(-5.82629e-07 0.00142206 4.0158e-19)
(-2.16433e-06 0.00142342 -2.03108e-16)
(-0.00100232 0.00038003 0)
(0.00101574 0.00028104 3.8579e-16)
(-0.000987356 0.00041161 5.36685e-17)
(7.78085e-06 0.00142264 -7.96989e-19)
(1.09196e-06 0.00142238 -2.03832e-16)
(-9.08327e-06 0.00142108 -2.03659e-16)
(-0.000997458 0.000400742 3.04099e-16)
(7.81687e-06 0.00142312 -2.04092e-16)
(-1.19554e-05 0.0014216 7.93031e-19)
(6.27011e-07 0.00142131 2.00594e-19)
(9.69804e-06 0.00142162 0)
(-3.57282e-07 0.00142412 0)
(9.82125e-06 0.0014215 0)
(1.02165e-06 0.00142241 0)
(-0.00099912 0.000379984 -5.05812e-17)
(-1.07037e-05 0.00142108 0)
(-6.99461e-07 0.00142198 0)
(0.00105552 0.000494869 1.57512e-16)
(6.97781e-07 0.00142241 0)
(-5.76645e-05 0.00148014 0)
(-2.85831e-07 0.00142411 4.08015e-16)
(5.26266e-07 0.00142132 0)
(0.000973273 0.000357258 -4.81151e-17)
(0.000979182 0.00038028 0)
(0.000871328 0.000439231 1.05925e-16)
(0.000959175 0.000345095 -2.06201e-16)
(1.11373e-06 0.00142269 -4.0723e-16)
(-0.000900858 0.000392243 0)
(4.34977e-07 0.00142245 -1.99184e-19)
(-0.00099228 0.000401598 -9.91594e-17)
(1.09246e-05 0.00142171 0)
(0.000484592 0.000554448 0)
(1.70152e-07 0.00142203 -4.02038e-19)
(7.34396e-07 0.00142573 -1.26936e-17)
(0.000367069 0.000872242 -7.05274e-18)
(9.68375e-06 0.00142085 0)
(1.15481e-06 0.00142198 0)
(-0.000996998 0.000392928 0)