/*--------------------------------*- C++ -*----------------------------------*\
  =========                 |
  \\      /  F ield         | OpenFOAM: The Open Source CFD Toolbox
   \\    /   O peration     | Website:  https://openfoam.org
    \\  /    A nd           | Version:  12
     \\/     M anipulation  |
\*---------------------------------------------------------------------------*/
FoamFile
{
    format      ascii;
    class       surfaceScalarField;
    location    "0.02";
    object      phi;
}
// * * * * * * * * * * * * * * * * * * * * * * * * * * * * * * * * * * * * * //

dimensions      [0 3 -1 0 0 0 0];

internalField   nonuniform List<scalar> 
6438
(
-3.32291e-09
4.05707e-07
-4.02384e-07
-3.57806e-09
4.71157e-07
-4.67579e-07
-4.40034e-07
-7.40648e-08
5.14099e-07
4.16581e-07
-4.57838e-07
4.12565e-08
6.43903e-07
-5.02555e-07
-1.41348e-07
1.50055e-07
4.93848e-07
-4.96405e-07
5.63706e-08
-4.35425e-07
4.31846e-07
4.69409e-07
-5.62156e-07
9.27471e-08
4.36687e-07
-5.10575e-07
7.38889e-08
-4.22852e-07
5.12414e-07
-8.95618e-08
1.02628e-07
-4.65284e-07
3.62657e-07
-5.19194e-07
9.63418e-08
4.00378e-07
1.85525e-07
-5.85904e-07
3.77426e-07
-3.80749e-07
-2.01382e-08
4.40739e-07
-4.20601e-07
-5.57016e-07
5.39056e-07
1.79602e-08
-4.2143e-07
5.10514e-07
-8.90838e-08
-5.17996e-07
9.6566e-08
1.65656e-07
3.5188e-07
-5.17536e-07
-1.21439e-07
-7.90478e-08
2.00487e-07
-2.62016e-08
4.63994e-07
-4.37792e-07
-4.27684e-07
-7.05724e-08
4.98256e-07
-5.23515e-07
2.30772e-07
2.92743e-07
-4.56999e-07
4.30798e-07
-4.05189e-07
4.94405e-07
-8.92163e-08
-4.91501e-07
6.3817e-08
4.70074e-07
-3.67447e-07
-4.25957e-07
-7.69062e-08
5.02863e-07
-5.12396e-07
1.07207e-07
3.96658e-07
-4.94244e-07
9.75866e-08
1.96962e-09
-4.84161e-07
4.82191e-07
4.72209e-07
-4.74088e-07
1.87903e-09
-4.68349e-07
7.98011e-08
3.88548e-07
-6.35248e-07
1.02463e-07
5.32785e-07
4.45497e-07
-4.43528e-07
4.47753e-07
-3.11715e-08
2.91677e-07
4.07598e-07
-6.99275e-07
-1.40965e-07
5.41343e-07
-4.16264e-07
4.5852e-07
-4.22557e-08
-4.85872e-07
4.81017e-07
4.8546e-09
-2.02148e-07
3.67804e-07
4.33469e-07
3.21739e-09
-5.20678e-07
5.10252e-07
1.04259e-08
4.67573e-07
-7.09149e-08
-3.43168e-07
3.23029e-07
-6.04758e-07
1.02202e-07
4.58397e-07
4.43147e-08
-5.02711e-07
-3.59477e-07
-1.08872e-07
-6.51185e-08
-4.30189e-07
4.88798e-07
-5.8609e-08
-3.2279e-07
4.62121e-07
-1.39331e-07
4.64373e-07
-4.64373e-07
1.44783e-07
3.53573e-07
4.61632e-08
-3.99736e-07
2.05908e-07
9.90606e-08
-3.04969e-07
3.93146e-07
7.94652e-08
-4.72611e-07
3.80389e-07
-1.49617e-07
-2.20285e-07
-3.84472e-07
-3.91375e-09
4.08969e-07
-4.05055e-07
-5.0576e-07
5.0576e-07
-5.22506e-07
5.27021e-07
-4.51424e-09
2.10655e-08
3.89807e-07
-4.10873e-07
1.35716e-09
-4.77759e-07
4.76402e-07
4.43068e-07
-4.41711e-07
-4.82588e-07
5.66318e-08
-4.83811e-07
-3.6867e-08
-4.13519e-07
4.54825e-07
-4.13059e-08
4.61626e-08
3.98326e-07
-4.44489e-07
-4.89022e-07
4.70528e-07
1.84936e-08
4.76958e-07
-4.76958e-07
4.43994e-07
2.54147e-08
-2.90686e-07
-2.1989e-07
4.13983e-07
8.88363e-08
-5.02819e-07
-4.0746e-07
-7.84118e-08
3.61694e-07
2.80485e-07
-6.42179e-07
-5.5972e-07
3.57572e-07
-3.56942e-07
-2.02778e-07
4.88632e-07
-7.46491e-08
2.93971e-07
-8.80627e-08
3.99732e-07
4.37093e-08
-4.43441e-07
-4.92467e-07
-3.00394e-08
-7.21388e-08
-1.20418e-07
-3.85342e-07
5.34285e-07
-5.34285e-07
-3.53679e-07
-1.35343e-07
-3.34967e-08
-6.01751e-07
-4.60649e-07
4.59498e-07
1.15109e-09
1.65956e-08
-4.68143e-07
4.51548e-07
-5.13731e-08
4.51105e-07
4.61183e-07
1.10257e-08
-4.82017e-07
-7.49997e-08
-4.86496e-07
4.97952e-07
-1.1456e-08
5.07769e-07
-2.83788e-07
-2.23981e-07
4.56891e-07
-4.40295e-07
9.879e-09
5.12014e-07
-2.60234e-07
-2.51779e-07
2.89892e-07
2.17877e-07
4.69969e-07
-4.69969e-07
-3.60277e-07
5.15948e-07
-1.55671e-07
-4.52452e-07
2.22633e-08
-6.20465e-08
-3.65943e-07
4.27989e-07
-4.24294e-07
1.68338e-08
-4.55006e-07
9.47292e-08
3.90146e-07
8.48194e-08
-4.74966e-07
-3.08805e-08
4.21027e-07
-4.10011e-07
4.73453e-07
-6.34415e-08
-4.33352e-07
1.70883e-08
3.00833e-07
2.11181e-07
4.52036e-07
-8.93795e-08
1.91747e-08
4.45198e-07
-3.91138e-07
-3.31553e-08
4.07775e-07
8.8706e-08
-4.96481e-07
-2.25553e-07
-1.95951e-07
4.21504e-07
2.97312e-07
-3.92814e-08
-2.5803e-07
-4.84161e-07
9.91816e-08
4.8252e-07
-5.81701e-07
-2.25474e-07
1.04035e-07
4.83262e-07
1.1143e-08
5.2583e-07
-2.73397e-07
-2.52433e-07
1.7816e-07
3.4767e-07
4.84963e-07
-7.71876e-08
5.97345e-07
-3.05668e-07
-4.41707e-07
2.13724e-09
4.39569e-07
-6.33087e-07
6.3277e-08
5.6981e-07
-7.55428e-09
-4.40295e-07
4.4785e-07
4.82707e-07
2.75442e-08
-3.73031e-07
3.69117e-07
-4.45194e-07
4.53985e-07
-8.79077e-09
4.5153e-07
-4.59084e-07
4.65867e-07
-4.65867e-07
4.57142e-07
1.4015e-08
4.59209e-07
-1.05636e-07
4.52971e-07
-4.31905e-07
-3.98444e-07
3.36397e-07
4.4181e-09
4.39401e-07
-4.43819e-07
5.17694e-07
-3.60503e-07
-1.57191e-07
-4.77759e-07
-7.20282e-09
5.58024e-09
-4.41005e-07
-4.3992e-07
2.64016e-08
4.6325e-09
4.40865e-07
4.26731e-07
-3.80569e-07
-4.39816e-07
2.98042e-08
4.4575e-07
-1.22807e-08
-1.62097e-08
3.8836e-07
-3.7215e-07
3.07696e-07
2.09998e-07
-4.57724e-07
9.92104e-08
3.58514e-07
4.64141e-07
-2.01973e-09
-6.16702e-07
5.52817e-08
5.6142e-07
-6.465e-09
-4.38052e-07
4.44517e-07
2.90474e-07
6.8378e-09
2.78803e-08
4.3626e-07
4.33153e-07
3.6921e-08
4.48998e-07
-4.55463e-07
-4.66644e-07
-1.5373e-08
4.78241e-07
-5.15005e-07
3.67647e-08
-4.25745e-07
-1.59612e-08
-5.18778e-07
2.25549e-07
2.93229e-07
-5.48292e-10
4.48109e-07
1.58848e-08
-4.22659e-07
4.91019e-07
-6.83607e-08
-4.62811e-07
4.00172e-07
6.26394e-08
-6.30541e-08
1.62161e-07
-9.91068e-08
-1.45559e-07
-3.66837e-07
-4.68143e-07
-3.98044e-09
4.47048e-07
1.38862e-07
3.77086e-07
-7.78952e-09
-4.54649e-07
-2.35056e-09
-9.75974e-09
-4.96781e-07
4.19327e-07
7.74541e-08
-2.93544e-08
3.70461e-07
7.35332e-08
7.26544e-07
-3.18945e-07
-1.52862e-07
-3.65134e-07
4.5518e-07
6.0036e-09
-3.89072e-07
1.63518e-07
-1.77187e-07
-2.76886e-07
4.54073e-07
-1.56494e-07
-3.627e-07
-2.53557e-07
6.15251e-07
-4.70294e-07
1.56456e-08
-4.44237e-07
4.46017e-07
-1.78009e-09
-3.64859e-07
3.4865e-07
-5.4552e-09
-4.35426e-07
4.40881e-07
-4.78659e-07
8.3651e-09
3.98652e-07
-4.74007e-07
7.53555e-08
4.45112e-07
-4.50567e-07
3.9623e-07
-1.49454e-07
-2.46776e-07
-6.0032e-07
2.15301e-07
3.85019e-07
4.06594e-07
3.91563e-08
3.35101e-07
2.03955e-07
9.81239e-08
4.36161e-07
-1.18359e-07
-4.15927e-07
-4.84839e-07
4.80521e-07
4.31755e-09
-4.83524e-07
-1.31476e-09
-4.81239e-07
-2.2847e-09
1.86191e-09
1.25394e-07
-7.00382e-07
5.74988e-07
-5.18468e-07
6.17649e-07
4.09699e-07
-4.05281e-07
4.38463e-07
1.84285e-08
3.56376e-08
3.60592e-07
-4.40295e-07
-3.98657e-07
3.97039e-07
4.93176e-08
-4.46357e-07
-2.27594e-09
-9.58268e-08
6.98541e-07
-6.02714e-07
6.62454e-07
-4.76929e-07
-2.014e-07
3.0046e-07
-1.28367e-07
-3.90411e-07
-3.45353e-07
-2.54966e-07
-4.39533e-07
-2.71106e-08
-4.43469e-07
4.43449e-07
1.9724e-11
-6.98555e-08
4.15496e-07
-3.45641e-07
-4.76561e-07
4.79672e-07
-3.11106e-09
-4.71435e-07
-5.12667e-09
-6.0535e-07
3.86799e-08
5.6667e-07
-4.21999e-07
-2.73447e-08
4.49343e-07
4.74985e-07
4.68761e-09
-8.42623e-08
-5.17042e-07
1.90751e-07
3.26291e-07
2.9147e-09
-2.74062e-07
-2.4298e-07
-6.25454e-09
-4.92099e-09
-4.32684e-07
4.37605e-07
-4.44129e-07
2.21302e-08
4.01171e-07
5.40091e-08
4.62076e-07
-4.42902e-07
4.40541e-07
-4.45462e-07
4.38795e-07
1.27349e-08
2.15776e-07
4.46678e-07
4.50008e-07
-7.95467e-08
-3.59727e-08
-5.97115e-07
-2.61095e-08
3.6195e-07
-3.3584e-07
-4.69328e-07
-2.10712e-09
-4.69218e-07
-1.09845e-10
4.72864e-07
-4.69296e-07
-3.56825e-09
4.67909e-07
4.95566e-09
-4.38052e-07
1.07215e-07
-1.46378e-07
3.91631e-08
-5.27838e-07
3.09393e-07
2.18445e-07
2.37012e-07
-4.7507e-07
2.38058e-07
-4.1413e-07
-3.83223e-08
-4.41997e-07
4.39856e-07
2.14178e-09
-4.58894e-07
4.42111e-07
1.67832e-08
-3.65589e-08
4.69679e-07
-4.3312e-07
-4.55924e-07
1.17952e-08
-5.06258e-07
6.31652e-07
-4.65937e-08
-4.1113e-07
-4.75912e-07
4.39353e-07
-3.73064e-07
-3.4028e-08
4.07092e-07
-3.46855e-07
4.65039e-07
2.86953e-09
-3.16795e-07
-8.47962e-08
9.42521e-08
-9.45592e-09
-4.17859e-09
1.7261e-08
-6.0333e-07
5.86069e-07
-3.33979e-07
-1.62425e-07
-4.70876e-07
4.61683e-07
9.19309e-09
-4.63626e-07
-7.24986e-09
-1.66085e-07
1.03031e-07
4.38019e-07
1.09787e-08
4.64134e-07
-7.43272e-08
4.63528e-07
-4.63312e-07
-2.16058e-10
-1.21609e-09
-4.29246e-07
4.30462e-07
4.8484e-07
-3.45978e-07
-5.7683e-09
4.79209e-07
2.72596e-07
-7.51805e-07
4.74049e-07
-4.74049e-07
7.47386e-08
4.31022e-07
-1.6726e-07
-2.97113e-07
-3.78634e-07
4.56354e-07
-7.77202e-08
-4.90706e-08
-4.09823e-07
4.38178e-07
-4.39394e-07
-4.18244e-07
6.22122e-09
4.12023e-07
8.09467e-08
-4.25392e-07
3.44445e-07
-4.40645e-07
4.35873e-07
4.77264e-09
2.8237e-07
2.02469e-07
-1.34748e-08
-7.13214e-08
-2.64274e-07
-2.63564e-07
-1.03384e-07
-4.69974e-07
4.73158e-08
-4.35426e-07
3.94204e-07
8.40363e-08
-3.6495e-07
-4.10948e-07
3.78841e-08
-4.19613e-07
2.42427e-07
4.76505e-07
-3.87181e-07
-8.93245e-08
8.08047e-08
3.81272e-07
-3.32997e-07
-1.58504e-07
-4.64727e-07
4.64727e-07
4.65928e-07
-4.48168e-07
-1.77599e-08
2.63785e-08
-4.40509e-07
-3.71658e-07
4.19924e-07
-4.82658e-08
-1.46407e-07
6.73591e-08
4.33758e-07
-4.35909e-07
2.1511e-09
4.56806e-07
4.87668e-09
4.60859e-07
5.06895e-09
6.94985e-07
-4.43768e-07
-1.21557e-08
-3.8903e-07
3.19175e-07
4.37262e-07
7.85053e-09
4.59516e-07
-4.57268e-07
-2.24827e-09
-4.11031e-09
-6.50541e-09
4.83747e-08
-3.93783e-07
3.45408e-07
-1.30813e-08
-6.0362e-07
1.44517e-07
3.21116e-08
-4.0377e-07
-4.39386e-07
4.32551e-07
6.83503e-09
4.3755e-07
-3.88981e-08
-2.02671e-07
-2.71417e-07
-6.14295e-07
4.54534e-08
-2.46853e-07
-7.29354e-08
1.6804e-09
4.5109e-07
-4.01772e-07
-4.32684e-07
-4.33299e-07
1.14678e-08
4.21831e-07
6.11085e-07
8.7456e-08
3.51645e-07
1.75376e-07
4.26496e-07
-1.89485e-07
4.44482e-07
-2.51554e-08
1.02485e-06
-7.52258e-07
-7.00382e-07
-2.25265e-07
-2.37546e-07
-5.77462e-09
4.75012e-07
-4.45033e-07
-2.99788e-08
4.50528e-07
1.03308e-08
5.23018e-08
-4.30935e-07
-3.19081e-07
3.67456e-07
4.36504e-07
4.03661e-09
3.37922e-07
1.5071e-07
4.57994e-07
1.70181e-08
4.57643e-07
-4.51161e-07
-6.48235e-09
-2.0688e-07
-2.87364e-07
-2.04842e-08
4.20656e-07
7.64094e-09
-4.84599e-07
3.79217e-07
-2.9827e-07
-6.7397e-09
9.47544e-09
3.70086e-07
-4.02333e-07
3.22466e-08
6.86992e-08
3.87655e-07
6.19228e-07
-6.01967e-07
2.16596e-07
2.72202e-07
-4.37876e-07
4.33383e-07
4.49227e-09
-1.00101e-08
-2.55225e-07
1.40328e-07
1.14897e-07
-4.67334e-09
4.7472e-07
-4.7472e-07
5.37407e-07
-3.12222e-07
-2.25184e-07
-3.90677e-07
-6.71613e-08
3.28225e-07
1.56738e-07
4.55439e-07
2.55467e-09
-4.29246e-07
4.25806e-07
2.8059e-09
-4.28612e-07
3.48138e-07
4.84599e-07
-4.82191e-07
1.22221e-08
5.664e-07
-5.03123e-07
4.37182e-07
-4.62906e-07
4.35759e-07
-9.95342e-09
3.92481e-07
-4.25876e-07
4.23895e-07
1.9814e-09
1.9377e-08
3.41458e-07
-3.60835e-07
-3.86307e-07
3.19312e-07
-2.88386e-08
4.0319e-07
5.53298e-08
-3.97811e-09
-3.74525e-07
-6.52904e-08
-5.62271e-07
3.55391e-07
1.45986e-09
-4.27205e-07
-4.54432e-07
-2.148e-08
6.07096e-07
-3.26611e-07
4.27876e-09
-7.94714e-08
4.82401e-07
-4.02929e-07
-2.05652e-07
-4.95732e-08
4.24033e-07
-4.28383e-07
4.34994e-09
-4.37182e-07
4.34687e-07
1.88652e-07
2.68503e-07
-4.57154e-07
4.52517e-07
-8.24311e-08
3.61794e-08
4.0456e-07
4.47778e-07
4.32411e-08
4.81083e-08
5.91069e-08
-4.76402e-07
1.05348e-08
-3.77159e-07
4.2946e-07
-2.18731e-07
2.64185e-07
4.03661e-08
-3.9613e-07
3.55764e-07
-3.38365e-09
6.63602e-09
-3.95269e-07
-4.50985e-07
4.42437e-07
8.54808e-09
-4.31146e-07
4.39646e-08
2.81931e-07
2.55475e-07
-2.41791e-07
4.96205e-07
-2.54414e-07
4.99507e-07
-4.66211e-07
-3.32956e-08
1.28459e-08
3.06466e-07
-4.28745e-07
-4.5545e-09
4.35161e-07
5.98198e-10
2.132e-07
-7.28728e-08
5.53945e-07
-4.98663e-07
3.92342e-07
6.24831e-08
2.46453e-08
-4.41999e-07
6.74733e-08
6.71655e-09
-3.83875e-07
4.93267e-07
-3.98538e-07
4.01546e-07
-2.42787e-08
-3.82249e-07
4.06527e-07
-4.33243e-07
4.51495e-07
-5.47766e-09
-6.56088e-07
5.33734e-08
-2.88156e-09
4.24755e-07
8.6289e-09
-3.99269e-07
-4.40629e-07
4.38919e-07
1.70951e-09
5.26727e-07
-3.06244e-07
-2.20483e-07
-3.68087e-07
-3.3566e-08
4.01653e-07
-7.48136e-10
-4.33206e-07
9.43327e-09
-4.76129e-08
4.64807e-07
-4.17194e-07
-4.26138e-07
4.28289e-07
-6.18431e-07
-9.01188e-08
-5.98067e-07
5.82874e-07
1.51935e-08
3.38714e-07
1.737e-07
3.98562e-07
3.6616e-08
-4.35178e-07
4.24067e-07
-1.74733e-08
3.39336e-07
1.71178e-07
-3.02608e-07
9.69562e-08
-4.29857e-07
3.71946e-07
-4.23319e-07
-5.75881e-07
5.73825e-07
2.05547e-09
5.18733e-07
-4.1627e-07
4.25103e-07
-1.20842e-09
2.64977e-08
-3.96475e-07
3.69977e-07
-6.42931e-09
-5.69451e-07
5.14933e-07
-5.14933e-07
-2.34949e-07
4.41532e-07
-2.06583e-07
-4.25005e-07
4.25005e-07
4.35106e-07
-3.84123e-07
-5.09827e-08
4.01031e-07
9.69211e-08
4.52631e-07
-3.71826e-07
4.48573e-07
-5.1244e-09
-3.4956e-07
-5.66587e-08
4.06219e-07
-5.68963e-07
5.70992e-07
-2.02874e-09
5.2528e-07
-3.15931e-07
-2.09349e-07
7.65624e-08
3.76068e-07
-5.74924e-07
5.71987e-07
2.93687e-09
-1.32489e-10
-4.34026e-09
5.67274e-07
-5.62934e-07
-5.72864e-07
5.72864e-07
-6.89879e-09
4.30932e-07
6.1539e-07
-5.73227e-07
-4.21627e-08
-5.7533e-07
5.7099e-07
5.74695e-07
-5.71813e-07
-2.88217e-09
-4.18851e-07
-9.53219e-09
4.90305e-07
-6.70815e-09
5.71002e-07
-5.64294e-07
5.71163e-07
-5.72255e-07
1.09166e-09
-4.32557e-07
5.68132e-07
-8.57926e-10
-4.40185e-07
4.36375e-07
3.80972e-09
-5.68026e-07
5.70161e-07
-2.13508e-09
4.35511e-07
-4.24043e-07
-5.73798e-07
5.6709e-07
4.40657e-07
-1.4072e-07
2.08322e-07
2.74078e-07
-3.17203e-07
-2.45068e-07
-5.71802e-07
5.71802e-07
-5.74453e-07
-8.77428e-10
5.32122e-07
-9.85805e-08
-4.33542e-07
-3.72981e-07
2.52563e-07
1.45687e-08
5.69058e-07
-5.70872e-07
1.81371e-09
4.18988e-07
-4.19008e-07
2.00754e-11
5.86819e-07
-5.71477e-07
-1.53422e-08
5.65964e-07
3.0944e-09
5.64965e-07
6.0367e-09
-1.23675e-09
-4.23768e-07
-5.20799e-07
2.87688e-07
2.33112e-07
-4.23166e-07
4.25972e-07
5.67844e-07
-1.87953e-09
5.95435e-08
3.84939e-07
3.04795e-07
-1.16143e-07
-5.73008e-07
-7.89827e-10
4.6732e-07
2.76746e-07
-4.72697e-07
-7.28109e-08
-5.83277e-07
4.27555e-07
-4.30414e-07
2.85837e-09
-1.99266e-08
-5.78141e-07
4.44968e-07
-5.11231e-09
4.93585e-07
-3.37288e-07
-1.56296e-07
-4.27894e-07
5.68743e-07
-5.68743e-07
4.07741e-07
6.23414e-09
-4.13975e-07
4.38939e-07
-5.69966e-07
5.69195e-07
7.7057e-10
5.65786e-07
-5.71389e-07
5.60282e-09
3.56969e-07
-4.75328e-07
-1.60141e-09
-5.65919e-07
5.67521e-07
5.64607e-07
-5.66208e-07
-1.85622e-08
6.01436e-07
-4.50585e-07
4.89265e-07
-5.12417e-07
3.55922e-07
-9.02214e-09
5.82847e-07
4.8847e-08
2.51613e-07
6.26679e-09
5.25855e-07
-1.34165e-09
4.5438e-07
-4.53038e-07
-3.99812e-09
-5.71305e-07
-3.61875e-09
4.70029e-07
-4.74371e-08
-4.22592e-07
-5.67506e-07
5.67506e-07
3.31303e-07
-2.8514e-07
-5.72238e-07
5.70692e-07
1.5464e-09
4.37593e-07
-4.37593e-07
4.2533e-07
-6.34214e-09
5.68291e-07
-5.69214e-07
9.23367e-10
-5.4772e-07
1.49063e-07
-8.66257e-11
-4.22515e-07
4.22602e-07
4.57878e-07
-3.89297e-09
5.6938e-07
5.31489e-09
3.45475e-07
5.88559e-08
-4.04331e-07
5.71226e-07
-3.09448e-09
4.45146e-07
-4.45146e-07
5.67609e-07
-5.65561e-07
-2.04759e-09
-4.34973e-07
4.31432e-07
3.54097e-09
5.71882e-07
-5.70167e-07
-1.7147e-09
-5.68493e-07
5.68494e-07
8.51622e-08
3.9865e-07
1.3536e-08
-4.12186e-07
-5.72286e-07
5.70749e-07
1.53717e-09
-2.23994e-09
-4.29206e-07
4.26827e-07
7.2876e-10
5.31756e-07
-9.94391e-08
-4.32317e-07
3.67713e-07
5.66158e-07
-5.67743e-07
1.58498e-09
4.38517e-07
4.67139e-07
6.6125e-09
4.01129e-07
5.80614e-07
-1.12336e-08
5.64206e-07
1.95216e-09
4.159e-07
-4.159e-07
-2.18731e-07
5.74184e-07
-5.69633e-07
-1.7562e-09
5.69435e-07
-5.67319e-07
-2.1161e-09
1.14084e-08
-5.80388e-07
5.68979e-07
6.00552e-08
-5.74988e-07
-5.71236e-07
5.70218e-07
1.01819e-09
4.12362e-07
-4.12401e-07
3.86004e-11
4.35106e-07
-3.83703e-07
3.83703e-07
5.65391e-07
-1.18435e-09
-4.24147e-07
-3.96475e-07
3.98562e-07
4.40686e-07
-4.81351e-09
-1.33473e-09
4.50751e-08
-5.61456e-07
5.69287e-07
-5.69542e-07
2.55498e-10
1.30159e-08
3.99346e-07
1.35929e-08
4.56436e-07
4.28177e-07
-2.84684e-09
-5.70058e-07
5.6933e-07
7.27899e-10
5.64961e-07
-5.66692e-07
1.73029e-09
-5.69387e-07
-2.85146e-09
5.67945e-07
-5.66374e-07
-1.57083e-09
4.29311e-07
8.28125e-09
5.68163e-07
2.52863e-09
-7.70819e-10
5.66994e-07
2.33559e-09
-1.07237e-10
-4.2035e-07
-5.75648e-07
6.19664e-09
-4.2614e-07
4.2614e-07
5.93243e-09
5.25823e-07
-4.33009e-07
8.34489e-08
3.1196e-09
5.68043e-07
2.32849e-08
-4.11163e-07
3.87878e-07
4.18236e-09
5.68682e-07
5.42579e-07
-5.9179e-07
4.29674e-07
1.54723e-08
5.64607e-07
-4.37198e-09
4.03022e-07
-4.13926e-07
1.52479e-09
4.08012e-07
-6.25362e-08
-5.66025e-07
5.66025e-07
-5.69019e-07
-3.26732e-09
3.84123e-07
-3.98256e-07
1.4133e-08
-5.68682e-07
4.18536e-07
-4.18623e-07
5.67864e-07
2.88481e-09
-5.68072e-07
-5.05642e-07
3.52779e-07
-5.70662e-07
5.69682e-07
9.79813e-10
3.87089e-07
3.69778e-08
4.22515e-07
2.48949e-09
-5.64143e-07
5.68121e-07
-3.97781e-09
-4.30104e-07
4.26514e-07
3.58942e-09
-5.65932e-07
1.78951e-09
4.27453e-07
-6.26684e-10
2.2981e-08
-4.40666e-07
4.17685e-07
5.65858e-07
-5.68442e-07
2.58347e-09
4.60675e-07
-4.82155e-07
5.65774e-07
-5.65723e-07
-5.12356e-11
-3.6039e-07
3.6039e-07
-4.45583e-07
4.45583e-07
-5.65117e-07
-8.15532e-10
-2.64185e-07
3.13032e-07
-5.66782e-07
5.65939e-07
8.43238e-10
4.59093e-09
5.67211e-07
3.53398e-07
-3.13032e-07
-3.53398e-07
3.72775e-07
3.73761e-07
-4.3042e-07
5.17552e-07
-3.05817e-07
-2.11736e-07
-5.68766e-07
-2.46932e-09
-8.20625e-08
-3.72775e-07
4.54838e-07
5.68014e-07
2.20401e-09
-4.3098e-07
3.97046e-07
5.69757e-07
-5.68583e-07
-1.17443e-09
-5.66281e-07
-4.27122e-07
4.3009e-07
-1.41907e-08
-1.56197e-09
5.69406e-07
5.66893e-07
-4.22602e-07
-5.80499e-07
-3.41125e-07
4.35178e-07
-9.40537e-08
-5.63813e-07
-2.10619e-09
5.66255e-07
7.39229e-10
3.30324e-07
-3.37902e-07
7.5772e-09
6.57111e-10
3.98256e-07
-4.14204e-07
1.5948e-08
2.62332e-07
2.64395e-07
-5.68516e-07
-2.14514e-09
-4.31554e-07
5.63765e-07
-5.63278e-07
-4.8763e-10
5.67798e-07
1.88424e-09
-5.69513e-07
5.68878e-07
6.34442e-10
4.36204e-07
4.29311e-07
-5.65243e-07
5.63953e-07
1.29013e-09
5.69235e-07
-5.68965e-07
-2.69735e-10
-4.24171e-07
4.29674e-07
5.64966e-07
-5.64966e-07
2.33302e-09
5.69654e-07
-3.56615e-07
-7.63938e-08
5.661e-07
-2.41544e-10
-7.25727e-08
3.86449e-07
-3.13876e-07
5.64684e-07
-5.64199e-07
-4.85351e-10
1.76134e-09
5.66982e-07
5.63638e-07
-5.6417e-07
5.31711e-10
-5.70305e-07
-5.68204e-07
-3.42297e-07
5.24083e-10
5.68671e-07
-7.21371e-10
-5.66928e-07
5.67649e-07
-5.64998e-07
5.6374e-07
1.258e-09
-5.68504e-07
-1.0091e-09
-4.30512e-07
-4.16268e-07
2.34282e-09
5.67887e-07
9.918e-10
-5.6448e-07
5.64238e-07
2.4261e-10
-5.64859e-07
2.18858e-09
5.62671e-07
5.68349e-07
1.40803e-09
-5.66557e-07
-2.02586e-09
-4.14002e-07
-1.89742e-09
5.68077e-07
-5.68414e-07
3.37514e-10
5.64923e-07
-5.65645e-07
-5.65868e-07
5.6508e-07
7.88285e-10
5.64446e-07
-5.63989e-07
-4.57327e-10
4.25843e-07
2.96931e-10
5.68248e-07
9.86904e-10
-5.67431e-07
-1.53453e-09
-5.6948e-07
4.3009e-07
-5.6476e-07
5.63612e-07
1.14827e-09
3.74959e-07
-3.99238e-07
-5.63162e-07
5.65302e-07
-2.13971e-09
5.64949e-07
-5.65809e-07
8.59414e-10
-1.46955e-09
-5.67931e-07
-5.72577e-10
-1.52212e-09
-5.01258e-07
3.55699e-07
-1.00531e-09
5.64923e-07
-9.6872e-10
-6.29787e-10
-5.6843e-07
4.98924e-10
2.18348e-07
4.77374e-07
-6.95722e-07
-1.17977e-07
5.6806e-07
1.60991e-11
-5.66982e-07
1.09743e-09
5.66409e-07
-5.67311e-07
-1.10275e-09
-4.27375e-07
-5.69009e-07
5.79099e-10
2.08482e-09
5.66206e-07
-7.88773e-11
2.75138e-09
-5.59423e-07
5.56672e-07
5.68866e-07
-5.6857e-07
-2.95785e-10
-4.34807e-07
7.81915e-08
5.67772e-07
-5.66778e-07
-9.93959e-10
-5.68117e-07
-4.21358e-07
-2.24602e-08
5.64333e-07
-5.63881e-07
-4.52281e-10
3.01505e-09
-5.59954e-07
5.56938e-07
-5.68722e-07
5.6763e-07
1.09132e-09
-4.30514e-07
4.26733e-07
3.78052e-09
4.75756e-10
-5.68703e-07
-3.0642e-10
-4.3329e-07
8.98312e-08
3.43458e-07
-5.67973e-07
-7.48456e-10
5.68663e-07
2.0276e-10
-5.67716e-07
-8.54123e-10
-2.35765e-09
-5.68733e-07
3.06031e-11
-4.09243e-07
-4.6538e-08
4.55781e-07
3.26508e-07
2.4414e-09
-5.66409e-07
4.26985e-07
-4.703e-10
-5.64314e-07
5.64314e-07
-1.10304e-09
5.68393e-07
2.69776e-10
-4.56736e-10
9.18118e-10
9.36971e-10
5.68606e-07
-2.12907e-10
3.44361e-10
5.68467e-07
-5.68462e-07
-5.45607e-12
4.10404e-07
-4.10404e-07
-5.6731e-07
5.66052e-07
1.25854e-09
5.65286e-07
-5.64713e-07
-5.73043e-10
-8.33322e-10
5.68252e-07
3.54423e-10
5.68277e-07
1.89725e-10
-2.09861e-10
5.68263e-07
5.67795e-07
-5.68099e-07
3.04674e-10
-5.73262e-07
-5.65965e-07
-1.34545e-09
4.38029e-07
-5.47797e-09
5.6727e-07
5.24326e-10
4.70668e-09
5.67724e-07
-5.6707e-07
-6.54634e-10
-4.05862e-07
4.05862e-07
3.29038e-09
5.65203e-07
-5.64209e-07
5.65133e-07
-9.2328e-10
5.67593e-07
1.30796e-10
2.689e-09
4.25488e-07
5.66931e-07
-5.66687e-07
-2.44037e-10
-5.624e-07
-1.80936e-09
5.65409e-07
-5.65866e-07
4.56813e-10
5.66543e-07
3.88029e-10
5.67573e-07
7.04934e-10
-5.50219e-09
-5.61425e-07
-8.39067e-10
-5.00367e-08
-3.80899e-07
5.64432e-07
-5.64986e-07
5.54242e-10
1.70254e-08
3.93379e-07
5.66869e-07
-5.66303e-07
-5.65653e-10
-5.26902e-10
-1.01397e-08
-4.71068e-07
4.81208e-07
-4.10667e-07
4.15393e-07
-4.72578e-09
-5.61746e-07
5.61937e-07
-1.90501e-10
5.66185e-07
6.8438e-10
-5.64453e-07
-3.52186e-07
5.70534e-07
5.6644e-07
-5.65592e-07
-8.47518e-10
-5.66943e-07
5.66954e-07
-1.11933e-11
5.65394e-07
-5.64888e-07
-5.0649e-10
-5.52469e-08
-4.85164e-07
5.40411e-07
5.65827e-07
6.13188e-10
-5.62219e-07
4.72749e-10
5.6652e-07
-5.65799e-07
-7.2096e-10
4.25843e-07
-4.3504e-07
4.3504e-07
5.66314e-07
-5.65197e-07
-1.11714e-09
-1.13007e-09
5.66521e-07
-8.91376e-10
-4.26477e-07
5.65465e-07
8.48554e-10
-5.66879e-07
-1.09362e-09
-5.61312e-07
5.61621e-07
-3.0889e-10
5.66946e-07
3.24255e-10
9.86378e-09
5.61128e-07
-1.2341e-10
5.66496e-07
1.44933e-09
4.25039e-07
1.94558e-09
7.49527e-11
-5.61908e-07
5.95937e-10
4.34491e-08
1.63638e-09
1.81592e-08
5.64883e-07
-5.65406e-07
5.2349e-10
-5.60711e-07
5.61381e-07
-6.70215e-10
1.05748e-08
-4.26009e-07
4.15434e-07
7.60509e-08
-4.42757e-07
3.66706e-07
1.59757e-07
4.01687e-07
-4.01687e-07
5.64438e-07
-5.64438e-07
-4.6128e-07
2.60563e-10
-5.65504e-07
4.33568e-07
5.66283e-07
1.31048e-09
-1.06208e-07
-1.98443e-07
3.04651e-07
-5.61567e-07
8.55723e-10
-5.61769e-07
-1.86191e-08
2.40055e-07
-3.95747e-07
1.55692e-07
-4.04006e-10
3.91044e-09
5.61392e-07
8.31188e-10
4.26622e-07
-5.67155e-07
1.20722e-09
5.64818e-07
3.60367e-07
-4.39851e-07
7.94843e-08
3.66836e-07
-1.26781e-07
-7.15641e-10
-5.64282e-07
5.67284e-07
-5.63373e-07
-5.65575e-07
-5.59969e-07
5.59421e-07
5.47879e-10
1.47375e-10
5.65791e-07
5.63838e-07
6.0036e-10
5.1526e-07
-3.42218e-07
-1.73043e-07
-1.30591e-09
4.3098e-07
5.65616e-07
9.26667e-10
5.1545e-07
-5.70697e-07
3.92177e-09
5.61364e-07
-6.73221e-10
-5.64087e-07
-5.60665e-07
6.96291e-10
-4.11524e-07
8.57141e-10
4.32781e-07
-3.46989e-07
-8.57923e-08
5.6282e-07
-5.62854e-07
3.4685e-11
-6.87015e-10
1.62161e-07
-2.28208e-07
-2.13692e-07
4.419e-07
5.63919e-07
-5.64772e-07
8.53122e-10
4.45816e-07
-4.39582e-07
-1.2009e-09
4.30512e-07
-3.69361e-07
2.63153e-07
5.63327e-07
-5.63883e-07
5.55808e-10
5.6662e-07
-5.62698e-07
-4.25016e-07
1.46116e-08
-4.26314e-07
4.25345e-07
9.68741e-10
4.14204e-07
-4.24344e-07
9.23843e-09
5.60923e-07
-4.30853e-07
4.16468e-07
-1.52978e-08
5.65692e-07
-5.65005e-07
-6.87186e-10
4.40034e-07
-4.21832e-07
-1.82014e-08
5.63838e-07
-3.45173e-10
-5.64135e-07
-4.17393e-07
1.12452e-09
5.25433e-08
3.20146e-07
-3.72689e-07
-5.5925e-07
5.58624e-07
6.25641e-10
5.62911e-07
2.03816e-09
-3.56253e-07
-7.41668e-08
4.20694e-09
5.61187e-07
5.64692e-07
-5.66057e-07
1.36517e-09
5.64026e-07
-1.03114e-09
-5.62247e-07
-4.38114e-07
-7.44398e-08
5.6497e-07
1.21434e-09
6.01483e-07
-1.24109e-07
-3.56397e-09
5.64499e-07
-5.60935e-07
5.64156e-07
5.36017e-10
-5.60092e-07
8.41993e-10
-5.6154e-07
-4.18252e-09
-1.04989e-09
5.56886e-07
-5.55836e-07
7.47585e-10
5.64218e-07
5.66699e-07
-5.62492e-07
-5.64818e-07
-1.46323e-09
4.31554e-07
-6.22153e-10
4.27372e-07
-2.14285e-08
-4.05944e-07
5.96039e-09
4.21412e-07
-5.57716e-07
5.56666e-07
-5.64705e-07
-1.2597e-09
3.58515e-07
7.42661e-08
-1.98523e-09
4.37082e-07
-4.35096e-07
-3.61043e-07
-3.02478e-07
3.55021e-07
-4.7093e-07
5.9519e-08
4.11411e-07
5.63968e-07
4.43615e-10
-5.64642e-07
5.75575e-09
5.61528e-07
5.63146e-07
-5.63239e-07
9.25611e-11
5.64377e-07
-5.62682e-07
-1.69547e-09
-5.65121e-07
4.27625e-10
-8.84682e-10
-4.2672e-07
4.27605e-07
9.59865e-11
5.64984e-07
-3.91684e-07
1.14798e-07
-5.64426e-07
5.6409e-07
3.35482e-10
-5.58465e-07
5.57772e-07
6.92462e-10
5.21265e-09
4.59608e-07
-4.46072e-07
3.38914e-07
-8.58913e-09
-3.04861e-09
5.64823e-07
-5.61775e-07
-5.02981e-07
2.74773e-07
5.63773e-07
5.00598e-10
-5.64489e-07
5.64318e-07
1.50846e-09
-5.27399e-07
4.70603e-09
5.22693e-07
9.25053e-10
-5.5939e-07
5.63261e-07
-5.62669e-07
-5.91873e-10
-1.76969e-08
5.66799e-07
-5.49102e-07
-8.78569e-10
-1.16318e-07
5.30556e-07
-4.14238e-07
-4.25016e-07
-4.64573e-07
5.63611e-07
-2.83738e-10
5.08375e-09
5.61536e-07
5.5036e-07
5.69102e-07
-5.69181e-07
7.9104e-11
5.77036e-10
-4.28563e-07
4.27986e-07
-5.6396e-07
5.63571e-07
3.88488e-10
1.15224e-08
-4.25525e-07
4.14002e-07
5.64693e-07
-5.64493e-07
-2.00375e-10
-4.37508e-07
4.35522e-07
5.63044e-07
-5.62599e-07
-4.44311e-10
1.59328e-09
5.62784e-07
-7.29951e-09
5.66016e-07
-5.6425e-07
4.58746e-09
-4.1546e-07
5.64286e-07
-5.64182e-07
-1.04323e-10
5.63988e-07
3.27553e-10
-5.64208e-07
5.61087e-07
1.16445e-09
-5.62252e-07
1.37876e-10
5.64352e-07
-5.62759e-07
-1.51943e-09
-4.27759e-07
4.29278e-07
3.03782e-07
-4.4647e-07
1.42688e-07
-9.35713e-08
-4.33828e-07
-4.15281e-07
-9.19653e-08
-3.638e-07
-5.63675e-07
3.34401e-09
5.60331e-07
-4.30274e-07
4.27759e-07
2.51539e-09
-1.30498e-07
-3.4483e-07
-5.63315e-07
5.03842e-07
-5.62168e-07
5.6318e-07
-1.01169e-09
-4.68956e-07
4.60789e-08
4.22877e-07
4.50185e-07
-3.45416e-07
-1.04769e-07
-5.64199e-07
1.16425e-09
5.63035e-07
4.28331e-07
-4.22751e-07
1.2129e-09
5.62048e-07
-5.64218e-07
5.8954e-10
5.63725e-07
5.6359e-07
1.87577e-09
-1.00185e-10
-5.64069e-07
-1.91024e-09
-5.62516e-07
-5.62747e-07
4.28107e-07
-4.23401e-07
-2.46737e-09
1.20705e-07
3.7288e-07
-3.8411e-07
3.8411e-07
5.00084e-09
5.61698e-07
-6.39303e-07
-5.21253e-07
5.2183e-07
5.64397e-07
4.27447e-07
-4.24055e-07
-5.63574e-07
5.61664e-07
-4.76235e-07
4.87758e-07
5.63155e-07
-5.62658e-07
-4.96971e-10
7.13446e-10
5.63718e-07
-5.70333e-07
4.29415e-07
-4.30934e-07
-5.63377e-07
9.76554e-10
2.12872e-07
5.6479e-07
-5.64105e-07
-6.84394e-10
-5.64397e-07
5.6319e-07
-5.62722e-07
-4.68509e-10
-5.63116e-07
-5.58872e-10
5.61845e-07
-5.6011e-07
-4.30417e-07
5.19123e-07
5.62699e-07
-5.62525e-07
-1.73778e-10
-1.00282e-09
5.6209e-07
-4.30274e-07
3.7311e-07
-4.03861e-07
3.07506e-08
-6.94806e-07
6.94806e-07
5.64137e-07
5.64241e-07
-1.43997e-09
9.77887e-10
-5.63977e-07
5.66082e-07
-2.10458e-09
5.63015e-07
-5.62538e-07
-4.77158e-10
-4.6732e-07
4.44859e-07
1.79822e-09
5.62701e-07
-5.64169e-07
1.55225e-09
5.62617e-07
-5.62465e-07
5.63669e-07
-5.62915e-07
-4.31921e-07
-5.63705e-07
1.9308e-09
5.61774e-07
-4.32417e-07
-1.25769e-09
4.22482e-07
-4.25495e-07
3.0127e-09
5.62272e-07
-5.62743e-07
4.7091e-10
1.09579e-08
-5.63703e-07
5.62748e-07
9.55298e-10
5.63599e-07
-4.13387e-07
-4.10685e-07
-6.70805e-09
5.64061e-07
-5.64061e-07
-2.95828e-09
4.28802e-07
-5.63725e-07
5.62908e-07
-5.6243e-07
-4.77582e-10
5.63939e-07
-3.18886e-09
-5.63185e-07
-4.19476e-07
-5.15922e-08
-4.31486e-07
3.36518e-07
-3.762e-07
3.96819e-08
-8.38761e-08
-3.64265e-07
4.48141e-07
5.61834e-07
-5.60323e-07
3.66309e-07
-4.26009e-07
-1.25791e-09
-5.62941e-07
5.63221e-07
-5.62752e-07
-4.68763e-10
4.32856e-07
-4.35206e-07
-1.18983e-07
-7.8662e-08
1.97645e-07
-4.48781e-07
4.51999e-07
4.34762e-07
-4.28802e-07
-1.72034e-09
-4.21495e-07
4.23215e-07
-2.33679e-09
-4.18244e-07
4.2058e-07
1.51735e-09
-4.39557e-07
4.3804e-07
4.0941e-09
-4.40927e-07
4.36833e-07
2.24019e-09
-4.31549e-07
4.29309e-07
-6.8847e-10
-4.22715e-07
4.23403e-07
-3.91601e-10
-4.22509e-07
4.22901e-07
2.53663e-07
-1.70931e-07
-8.27319e-08
3.74551e-07
2.84682e-09
5.61976e-07
4.12016e-07
-4.14985e-07
2.96971e-09
1.32495e-09
-5.62989e-07
5.61664e-07
5.64481e-07
-5.64481e-07
5.57002e-07
2.43051e-11
-5.57026e-07
-1.96133e-09
-5.61613e-07
5.62866e-07
-5.62369e-07
-4.96795e-10
-3.49841e-07
-4.59268e-07
-9.68785e-09
3.696e-07
7.04339e-08
5.64045e-07
-5.63218e-07
-8.26946e-10
-4.29354e-07
4.47314e-07
1.9041e-09
5.62448e-07
-3.09633e-07
-1.93348e-07
4.66135e-09
4.03554e-07
-4.08215e-07
-2.8865e-07
-4.92512e-08
-9.67844e-08
-5.90784e-08
1.55863e-07
4.24363e-07
4.24415e-07
4.42897e-07
4.43033e-07
4.40034e-07
4.33867e-07
-2.01527e-09
-4.25216e-07
4.27231e-07
4.25673e-07
-6.34277e-10
-1.66135e-07
5.63054e-07
-5.6173e-07
-1.40735e-08
4.53427e-07
-5.64589e-07
-3.85196e-07
4.77944e-07
5.5645e-07
2.01439e-10
-5.56652e-07
5.6522e-07
-1.15901e-09
-5.64005e-07
2.07835e-09
5.61927e-07
-4.24851e-07
-4.2672e-07
4.26841e-07
-4.28856e-07
-3.88092e-07
4.68819e-07
-8.07266e-08
-1.02489e-09
-5.6268e-07
2.93556e-07
-3.66129e-07
9.26719e-10
-5.63596e-07
-5.62914e-07
-1.49707e-07
-2.19654e-07
-5.61915e-07
-1.07413e-09
4.31848e-07
1.3468e-07
3.30048e-07
5.62309e-07
-5.61873e-07
-4.36449e-10
4.28161e-07
-2.82916e-07
-1.45244e-07
-2.04204e-07
1.0742e-07
-2.36959e-07
5.11732e-07
-2.05215e-07
4.26225e-07
-2.2101e-07
2.54104e-10
5.63664e-07
-5.59771e-07
5.62703e-07
-5.63031e-07
3.27608e-10
-3.18678e-07
1.35565e-07
1.83113e-07
-1.8126e-09
-4.25088e-07
4.26901e-07
5.89145e-07
-2.59833e-07
-3.29312e-07
3.66321e-10
5.56635e-07
-1.2277e-07
-1.95908e-07
-4.11302e-07
4.15964e-07
3.51389e-07
2.3162e-08
-4.09205e-07
-8.09266e-10
-4.25427e-07
4.26236e-07
4.38823e-07
-4.25807e-07
-2.60805e-07
-9.9696e-08
3.60501e-07
-5.6187e-07
5.62043e-07
-1.73361e-10
-4.14472e-07
4.19059e-07
5.62425e-07
-5.62801e-07
-3.75723e-07
-8.38736e-09
-5.66693e-07
5.64577e-07
-2.93701e-07
4.19357e-10
5.62761e-07
4.90552e-07
-2.71095e-07
-2.19457e-07
4.14611e-07
-7.80928e-08
4.64766e-07
-6.12126e-08
4.26256e-07
-4.28069e-07
5.61729e-07
-5.61713e-07
-1.50925e-11
4.26372e-07
-4.27182e-07
5.17489e-10
-5.61402e-07
5.60885e-07
-2.3658e-07
-5.71203e-08
2.00787e-09
-4.32425e-07
-5.6302e-07
8.01585e-10