/*--------------------------------*- C++ -*----------------------------------*\
  =========                 |
  \\      /  F ield         | OpenFOAM: The Open Source CFD Toolbox
   \\    /   O peration     | Website:  https://openfoam.org
    \\  /    A nd           | Version:  12
     \\/     M anipulation  |
\*---------------------------------------------------------------------------*/
FoamFile
{
    format      ascii;
    class       volVectorField;
    location    "0.02";
    object      U;
}
// * * * * * * * * * * * * * * * * * * * * * * * * * * * * * * * * * * * * * //

dimensions      [0 1 -1 0 0 0 0];

internalField   nonuniform List<vector> 
4428
(
(0.000152141 5.78082e-05 7.72799e-17)
(-0.000153873 6.38566e-05 -6.88641e-17)
(-0.000142914 6.64534e-05 0)
(-0.00014538 6.23217e-05 0)
(0.000139484 0.000117902 6.22026e-17)
(0.000150888 0.000123429 2.59944e-21)
(-0.000140406 8.48436e-05 0)
(-0.000155412 5.51108e-05 1.11552e-16)
(0.000152742 6.45829e-05 -1.89767e-16)
(0.000159863 4.50429e-05 7.58395e-17)
(-0.000146974 4.91604e-05 -1.32063e-16)
(0.000140363 6.50819e-05 -1.34754e-16)
(-0.000163045 3.05834e-05 -1.55172e-16)
(-4.78559e-05 0.000178233 -7.30037e-17)
(0.000149975 5.78201e-05 0)
(0.000139917 4.94223e-05 0)
(0.000159834 5.87091e-05 0)
(-0.000146997 4.91938e-05 0)
(-0.000163711 3.02266e-05 0)
(0.000153282 5.61398e-05 0)
(5.3416e-05 4.40958e-05 -3.41363e-16)
(-0.0001536 5.85163e-05 -1.35394e-16)
(-0.000144406 6.39095e-05 0)
(-0.000161933 5.07836e-05 0)
(-0.000152724 5.82973e-05 1.72663e-17)
(-0.000145426 5.11651e-05 0)
(-0.000147554 8.15658e-05 7.8749e-17)
(0.000150883 4.42412e-05 1.58329e-16)
(0.000143246 7.0882e-05 0)
(-0.000166201 3.43649e-05 0)
(0.000156442 3.17749e-05 0)
(-0.000155267 5.76975e-05 -1.40348e-16)
(0.000157324 5.04842e-05 -6.8587e-17)
(-0.000161703 8.1549e-05 -2.11373e-16)
(-5.92277e-06 0.000210468 3.57926e-17)
(-0.000154345 6.0786e-05 1.52278e-16)
(-0.000154067 8.0193e-05 -3.37068e-21)
(0.000140425 0.000189393 9.6797e-18)
(-1.73484e-05 0.000182107 -1.998e-17)
(-0.000145667 6.49843e-05 0)
(0.000155764 5.58481e-05 0)
(0.000134718 3.96112e-05 0)
(0.000144834 4.8489e-05 7.04251e-17)
(-0.000159451 4.98255e-05 1.26522e-16)
(0.000152434 4.27573e-05 0)
(0.000121946 4.68606e-05 0)
(0.00014238 0.0001396 -7.60272e-17)
(-0.000143897 7.29418e-05 1.54778e-16)
(-0.000148461 6.58532e-05 1.71019e-16)
(-0.000152737 6.84483e-05 0)
(0.000153303 6.61487e-05 0)
(0.000131908 7.04501e-05 1.43333e-16)
(0.000159567 4.67061e-05 -6.95769e-17)
(0.000133759 7.20899e-05 0)
(0.000139601 6.16558e-05 -1.06503e-17)
(9.6856e-05 4.29725e-05 0)
(0.000140903 6.88309e-05 -7.08527e-17)
(-0.000143855 4.29392e-05 0)
(0.000126687 0.000136492 1.39401e-16)
(0.000149882 4.95181e-05 -1.38676e-16)
(0.000158019 6.07913e-05 1.27313e-16)
(-0.000159804 5.0367e-05 0)
(0.000137193 5.2857e-05 2.13299e-16)
(-0.000155115 5.75957e-05 7.06281e-17)
(-0.000154093 6.09667e-05 0)
(0.000142018 6.22565e-05 0)
(-0.000157792 5.04527e-05 1.31931e-16)
(-0.000146076 6.33882e-05 -1.41579e-16)
(0.000147393 5.15072e-05 -1.38809e-16)
(-0.000154526 6.6303e-05 -2.75744e-16)
(-0.000158406 4.80483e-05 -6.98015e-17)
(0.000146394 6.76321e-05 1.62024e-16)
(0.000163542 7.45329e-05 4.42298e-17)
(-0.000142999 6.1375e-05 3.4054e-17)
(0.000151287 5.36121e-05 1.4983e-16)
(-2.38568e-06 0.000204974 -1.39655e-16)
(0.000161293 7.48571e-05 0)
(0.000166093 6.87588e-05 0)
(-0.000143023 8.54775e-05 -9.00161e-17)
(0.000106145 4.76577e-05 -3.12247e-21)
(0.000140914 7.2891e-05 -1.50508e-16)
(-0.000156678 4.87007e-05 0)
(0.000142508 7.04787e-05 -1.37954e-16)
(0.000147703 6.48295e-05 -1.31099e-16)
(0.000158322 5.75046e-05 2.42521e-16)
(-0.00017235 4.75295e-05 -1.94053e-16)
(-2.36059e-05 0.000236361 8.773e-17)
(-0.000156489 5.7617e-05 0)
(-0.000154649 5.83895e-05 -7.31697e-17)
(0.000140881 6.22878e-05 1.55995e-17)
(0.000151909 4.40661e-05 6.37454e-17)
(0.000155346 5.57267e-05 -1.21425e-16)
(-0.000157388 6.25925e-05 0)
(-0.000162158 6.11472e-05 0)
(-0.00015433 6.11596e-05 7.47967e-17)
(-0.000148703 6.4466e-05 1.27331e-16)
(0.000160174 6.26084e-05 8.65014e-17)
(-0.000163924 6.29097e-05 -9.13561e-17)
(-0.000158694 4.7425e-05 7.07595e-17)
(0.000144028 8.239e-05 0)
(0.000142696 6.69026e-05 -1.71538e-17)
(0.00014755 5.83509e-05 0)
(0.000151456 5.26692e-05 0)
(0.000137114 5.278e-05 -1.4323e-16)
(0.000141402 6.95824e-05 -7.90114e-17)
(0.000138749 6.56832e-05 1.82783e-21)
(0.000150122 6.18382e-05 1.45012e-16)
(-0.000154606 7.60974e-05 -9.3301e-17)
(0.000162671 6.17702e-05 -9.2057e-17)
(0.000142333 7.57327e-05 0)
(0.000149565 4.79221e-05 1.25484e-16)
(0.000149078 5.70359e-05 -1.48424e-16)
(-0.000143719 6.05589e-05 2.06858e-21)
(0.000141485 5.40324e-05 1.26451e-16)
(-8.90299e-05 5.5381e-05 8.8033e-17)
(-0.000158983 4.70232e-05 1.37322e-16)
(-3.39863e-05 0.000199685 0)
(6.2149e-05 4.91911e-05 3.99811e-17)
(-0.000160102 5.17127e-05 6.76316e-17)
(0.000163701 6.67496e-05 -8.59901e-17)
(0.000166783 6.39298e-05 1.6117e-16)
(-0.00014315 8.62232e-05 1.83834e-16)
(0.000103145 0.000168819 -1.50019e-16)
(0.000156394 5.14634e-05 -2.31332e-16)
(3.89891e-06 0.000211101 1.36199e-16)
(-0.000155312 5.76986e-05 0)
(-0.000157407 5.12683e-05 -2.07438e-16)
(0.000142937 6.20267e-05 7.58172e-17)
(-0.000153987 6.32149e-05 -2.31699e-16)
(-0.000155008 6.05502e-05 7.36595e-17)
(-0.000158498 4.85305e-05 -1.42579e-16)
(-0.000151345 6.28252e-05 0)
(0.000155261 6.20898e-05 1.70766e-16)
(0.000146074 5.70219e-05 0)
(0.000148445 5.78294e-05 0)
(0.000158802 6.85642e-05 4.97995e-21)
(0.000164158 6.84091e-05 -1.85657e-16)
(-0.00015881 4.77267e-05 -1.38965e-16)
(-0.000155138 5.90773e-05 -1.3985e-16)
(-0.000153437 6.22027e-05 1.09677e-16)
(-0.000155321 7.69723e-05 -9.42543e-17)
(-0.000154928 5.61229e-05 -7.37142e-17)
(0.000146365 5.90232e-05 0)
(0.000147679 5.91845e-05 -1.51948e-16)
(0.00015354 5.69649e-05 0)
(0.00014601 5.6203e-05 7.37263e-17)
(0.000160527 7.6635e-05 9.78875e-17)
(-3.40635e-06 0.000148211 -6.96351e-17)
(0.000165523 4.06284e-05 2.20109e-16)
(-4.19449e-06 0.00021005 3.46221e-17)
(-0.000155197 5.78081e-05 -1.52012e-16)
(-9.99653e-05 4.6125e-05 7.64074e-17)
(0.000148849 4.41587e-05 -7.41029e-21)
(0.000167002 5.59008e-05 -1.8943e-16)
(-0.000154897 6.04855e-05 2.22171e-16)
(0.000156345 5.74435e-05 0)
(0.000144497 9.61612e-05 -1.34957e-16)
(0.000152851 4.3983e-05 -7.22666e-17)
(0.000154818 5.19353e-05 -1.36205e-16)
(-0.000156421 4.94315e-05 -6.9513e-17)
(-0.000153986 6.42652e-05 1.48915e-16)
(0.000149322 5.94984e-05 0)
(0.000163737 4.87847e-05 0)
(-5.40348e-05 2.41082e-05 -1.6547e-16)
(-0.000161296 7.19157e-05 9.10984e-17)
(-0.000159048 4.83691e-05 0)
(-0.000154417 5.65685e-05 0)
(0.000163659 4.86536e-05 0)
(-0.00015467 5.89355e-05 1.49192e-21)
(-0.000154617 6.73078e-05 7.13754e-17)
(-0.00015736 5.03217e-05 -7.14677e-17)
(0.000154038 6.1719e-05 3.05946e-21)
(-0.000155144 5.79184e-05 0)
(0.00013748 5.97639e-05 0)
(0.000142152 0.000185339 -8.86687e-18)
(-0.000162272 7.23338e-05 1.7454e-16)
(0.000155927 5.5251e-05 0)
(0.000134042 7.19201e-05 1.635e-16)
(0.000147385 6.56423e-05 1.66052e-16)
(-0.000161937 7.1794e-05 8.71025e-17)
(-2.58313e-05 0.000207797 -5.22481e-21)
(-0.000149935 6.26385e-05 1.33395e-16)
(-0.000156113 5.45186e-05 1.46251e-16)
(0.000144638 5.39305e-05 0)
(-0.00015506 5.7928e-05 2.29011e-16)
(-0.000152417 7.31421e-05 -7.25477e-17)
(0.000152763 5.97079e-05 0)
(-0.000154659 6.03136e-05 0)
(0.000134545 5.40436e-05 2.61774e-16)
(0.000156592 7.06573e-05 0)
(0.000150141 5.43717e-05 0)
(0.000156369 7.93763e-05 1.96933e-17)
(0.000152496 5.31337e-05 0)
(0.000151606 6.84203e-05 -2.8029e-16)
(-0.000148652 7.34346e-05 0)
(-0.000148599 7.30479e-05 -1.37806e-16)
(-0.000148429 7.27948e-05 2.06422e-16)
(-0.00014762 7.13712e-05 6.77175e-17)
(0.000210844 0.000122081 1.13343e-16)
(-4.99022e-05 0.00021992 0)
(0.000152557 6.9392e-05 1.62871e-16)
(-0.000156009 5.6516e-05 -1.47874e-16)
(0.000124681 6.61352e-05 -1.44999e-16)
(-0.000157182 4.98579e-05 0)
(0.000138826 5.57877e-05 -1.34579e-16)
(0.000150923 5.2927e-05 -2.27097e-18)
(-0.000154393 5.9274e-05 7.10552e-17)
(-3.44467e-05 0.000239571 -1.35552e-16)
(-8.05112e-05 0.000207789 8.52144e-18)
(0.00010225 5.30272e-05 0)
(0.000155636 6.8015e-05 0)
(0.000175106 5.77136e-05 0)
(0.000153387 6.45441e-05 4.51488e-21)
(-0.000155767 5.46927e-05 0)
(0.000150751 5.5389e-05 0)
(-0.000150283 7.18803e-05 -1.06737e-16)
(-0.000149017 7.09073e-05 1.40029e-16)
(8.16254e-06 0.000209955 -1.40721e-16)
(-0.000147228 5.98753e-05 1.51849e-16)
(-0.000148008 7.24632e-05 -3.45602e-17)
(0.000152944 6.42453e-05 1.48852e-16)
(0.00016817 5.67993e-05 -4.68672e-17)
(-0.000153434 5.99308e-05 1.41313e-16)
(0.000161971 7.35426e-05 0)
(-0.00014876 7.26242e-05 0)
(-0.000154913 5.80916e-05 0)
(-0.000155072 5.97383e-05 -8.28408e-17)
(0.000149867 5.36574e-05 -1.47083e-16)
(0.000142864 6.10876e-05 2.93032e-21)
(-0.000154458 6.02103e-05 0)
(-0.000154928 5.64009e-05 7.49151e-17)
(-9.60833e-05 0.000191162 0)
(0.000131862 8.72794e-05 0)
(2.69958e-05 0.000233268 6.56589e-17)
(0.000145077 6.09152e-05 4.37821e-17)
(-0.000150168 6.99483e-05 0)
(-0.000149643 7.13823e-05 0)
(-0.000149911 7.08517e-05 1.43407e-16)
(-0.00015024 7.03509e-05 -1.4185e-16)
(-0.000156872 5.08976e-05 2.26876e-16)
(-1.56477e-05 4.33428e-05 3.91538e-17)
(-0.000165984 6.62753e-05 -4.49585e-17)
(-0.000145675 7.17682e-05 4.75212e-17)
(0.000149337 6.02593e-05 1.70469e-17)
(-0.000155502 5.51928e-05 -7.33411e-17)
(-4.22261e-05 0.000158574 -7.70729e-17)
(-0.000153549 7.38023e-05 1.44252e-16)
(-0.000156132 5.5822e-05 1.4691e-16)
(0.000178762 0.000119078 0)
(-1.73575e-05 0.000156216 0)
(-0.000162177 6.63473e-05 4.60469e-21)
(0.000147136 5.84349e-05 1.55733e-16)
(0.000152239 6.58412e-05 -8.04972e-17)
(-0.000149061 7.07505e-05 1.38584e-16)
(0.000130403 4.83648e-05 -1.00054e-16)
(2.75953e-05 1.81589e-05 8.22237e-17)
(-0.000149555 7.08852e-05 -2.78549e-16)
(-5.60453e-07 0.000208872 0)
(-0.000177592 6.02925e-05 -2.79466e-17)
(-0.000151004 6.99121e-05 -1.61346e-16)
(-0.00015067 7.02835e-05 1.4478e-16)
(-5.38541e-05 2.67759e-05 1.65502e-16)
(-0.000154846 5.67518e-05 0)
(0.000168351 3.22891e-05 9.37263e-17)
(-0.000149713 7.02068e-05 -7.14568e-17)
(-0.000153867 5.95997e-05 -7.62473e-17)
(0.000161614 5.80766e-05 0)
(-0.000149863 7.06225e-05 0)
(-0.000104723 0.000227966 1.04595e-16)
(-0.000159282 5.40208e-05 -1.39993e-16)
(0.000151083 5.17171e-05 0)
(0.000156716 7.6326e-05 1.80712e-16)
(0.000149639 5.97295e-05 9.3811e-18)
(-2.92653e-05 0.000169339 1.96913e-16)
(-0.00015497 5.85587e-05 0)
(0.000146783 6.25803e-05 1.50961e-16)
(0.000151767 5.68934e-05 -2.00813e-16)
(-0.00015515 5.60721e-05 1.48039e-16)
(0.000164715 8.1606e-05 0)
(2.66522e-05 1.70101e-05 -8.41648e-17)
(-0.000174608 7.2763e-05 -2.05809e-22)
(-2.49743e-05 0.000210621 7.34045e-17)
(0.000150275 5.70937e-05 0)
(-0.000156532 5.17717e-05 -2.27948e-16)
(0.000140165 7.91232e-05 2.99699e-16)
(0.000137284 7.81337e-05 -6.9521e-17)
(0.000151655 5.98531e-05 -1.01298e-17)
(0.000152926 5.24679e-05 -9.61906e-17)
(0.000153019 6.07461e-05 1.48146e-16)
(0.00015216 5.67095e-05 0)
(-0.000170295 4.79911e-05 1.09396e-16)
(-0.000160344 5.24705e-05 -1.42549e-16)
(-0.000151368 6.83668e-05 -5.69306e-19)
(0.000143536 7.09991e-05 0)
(0.000141665 6.41417e-05 1.63563e-16)
(4.93426e-05 1.60157e-05 1.76753e-16)
(-0.000153853 5.73193e-05 1.48981e-16)
(-0.00014928 7.00551e-05 1.58452e-16)
(-0.000153261 7.07894e-05 0)
(-9.40838e-05 0.000222183 1.49919e-16)
(-0.0001556 5.64297e-05 4.49907e-21)
(0.000144518 5.61076e-05 8.73879e-17)
(-0.000154725 5.69759e-05 0)
(-0.000150516 6.9828e-05 -9.05033e-18)
(-0.000150357 7.03972e-05 0)
(-0.000150004 7.04108e-05 -1.4165e-16)
(-0.000154245 6.04918e-05 0)
(-2.38715e-05 0.00023312 -9.11205e-17)
(9.73857e-05 5.749e-05 -2.62526e-16)
(0.000146377 7.95102e-05 9.56954e-17)
(-0.000155012 5.65726e-05 7.46461e-17)
(0.000147928 5.86799e-05 0)
(0.000158404 7.81044e-05 -9.64341e-17)
(-2.6061e-05 0.000225344 -1.45112e-16)
(9.26341e-05 3.1214e-05 -1.70598e-16)
(0.000149867 6.16226e-05 0)
(0.00015188 6.87361e-05 0)
(0.000149157 6.33512e-05 -1.42949e-16)
(-0.000156177 5.27246e-05 0)
(-0.000153925 5.8805e-05 1.49771e-16)
(-3.86623e-05 0.000248552 -4.7057e-18)
(-0.000163207 7.47752e-05 -7.73285e-17)
(-0.000142176 5.52575e-05 4.65441e-17)
(0.000147476 5.71171e-05 2.96634e-16)
(-0.000109316 0.000336383 -1.11302e-16)
(0.000252252 9.95736e-05 -1.50768e-16)
(0.000143209 6.99005e-05 -1.61973e-16)
(-0.000152828 5.9707e-05 7.34725e-17)
(-0.000153257 7.20696e-05 -9.27823e-18)
(-0.000149222 7.10985e-05 -1.44381e-16)
(0.000149401 5.70764e-05 1.59843e-16)
(-0.000154497 5.70271e-05 0)
(-0.000154686 5.70868e-05 7.54948e-17)
(-0.000177996 5.99956e-05 1.1502e-16)
(-0.000155062 7.45633e-05 0)
(-0.000152541 7.0978e-05 0)
(0.000154648 7.59275e-05 -9.3933e-17)
(0.000142212 5.37273e-05 0)
(-0.000154944 5.789e-05 0)
(0.000144817 5.61319e-05 0)
(-0.000150132 6.98669e-05 9.01535e-18)
(-0.000152156 6.87886e-05 5.75051e-19)
(0.000141193 4.35682e-05 0)
(0.000150999 5.53886e-05 1.46967e-16)
(7.28797e-07 0.000211076 0)
(0.000154189 4.78303e-05 0)
(-0.000155309 5.73069e-05 3.75276e-17)
(-0.000156045 5.54633e-05 -2.29707e-16)
(1.38749e-05 9.14294e-05 0)
(-0.000153449 5.9382e-05 -1.4737e-16)
(-0.000165448 3.616e-05 7.0388e-17)
(-0.00017029 6.38833e-05 -3.55788e-21)
(-0.000163725 5.44152e-05 -1.8545e-16)
(-0.000178149 5.86116e-05 1.15174e-16)
(-0.00015097 7.28058e-05 0)
(-0.000156275 5.37792e-05 1.53996e-16)
(-0.000153402 5.89361e-05 7.64171e-17)
(0.000150939 5.73748e-05 0)
(-0.000152567 5.12186e-05 1.23847e-16)
(-0.000154367 5.70427e-05 -2.04759e-16)
(-4.31514e-06 0.000202619 0)
(-0.000149085 6.94092e-05 -2.13672e-16)
(-0.000153289 6.55293e-05 0)
(-0.000155172 5.76115e-05 0)
(0.000153348 5.55986e-05 1.5476e-16)
(-0.000154739 5.66455e-05 7.72474e-17)
(0.000135253 4.72509e-05 1.63647e-16)
(0.000151796 6.15982e-05 -1.5538e-16)
(-0.000107859 5.32549e-05 0)
(-0.000163319 5.48836e-05 0)
(-0.000153609 5.93543e-05 0)
(0.000150105 5.84873e-05 -1.62068e-16)
(0.00015737 7.18326e-05 0)
(0.000152071 5.68342e-05 0)
(-0.000164581 7.1337e-05 -2.28092e-16)
(2.89601e-05 0.000201361 1.66089e-16)
(-0.000151426 7.16724e-05 1.46502e-16)
(0.000161623 4.94112e-05 -1.64262e-16)
(-3.91003e-06 0.000107341 -4.71957e-17)
(-0.000154404 6.03384e-05 0)
(-0.00015348 6.57396e-05 2.28391e-16)
(-0.000146808 7.11216e-05 -1.37405e-16)
(1.95077e-05 0.000158873 8.25065e-17)
(0.000164707 2.93461e-05 0)
(0.000167848 4.09219e-05 8.73982e-17)
(0.000144896 6.27174e-05 1.35471e-16)
(-3.03197e-05 2.29739e-05 1.6056e-16)
(-0.000154452 5.66956e-05 -6.88726e-17)
(0.000151568 6.02558e-05 0)
(9.40875e-05 3.57502e-05 0)
(0.000132211 3.93075e-05 2.94475e-16)
(-0.000153814 5.94016e-05 0)
(0.000158851 4.88408e-05 -8.17002e-17)
(-0.000167437 4.20446e-05 9.60741e-17)
(-0.000155098 5.91004e-05 7.30013e-17)
(0.000146693 5.87338e-05 -1.48702e-16)
(-0.000181747 6.76299e-05 -1.03607e-16)
(-0.000150659 6.47768e-05 1.40879e-16)
(-0.000168396 7.75284e-05 7.69606e-17)
(-0.000115091 4.60543e-05 -8.30057e-17)
(-0.00015519 5.85693e-05 0)
(-0.000154622 5.87654e-05 0)
(-1.29534e-05 7.79045e-05 0)
(4.94834e-06 0.000201962 -1.91228e-16)
(-0.000162897 5.58665e-05 0)
(-0.000155235 7.71978e-05 -6.6463e-17)
(0.000150245 5.67642e-05 2.86607e-16)
(0.000143855 6.09533e-05 -8.47069e-17)
(0.000150839 5.19864e-05 2.89172e-16)
(0.000152324 6.18389e-05 -4.18414e-17)
(0.000150576 5.71512e-05 -4.22299e-21)
(-0.000153063 6.19498e-05 -3.74325e-17)
(-0.0001535 6.0236e-05 -7.34241e-17)
(-1.26856e-05 0.000237204 4.55169e-18)
(-0.000154072 5.94973e-05 -1.488e-16)
(-0.000152987 6.42106e-05 -3.92414e-17)
(0.000142827 6.22993e-05 0)
(-0.000154652 5.95501e-05 -7.43537e-17)
(-0.000171025 6.54203e-05 -2.73472e-16)
(-0.000152204 6.81204e-05 -1.06208e-17)
(-0.000155187 5.78682e-05 0)
(-0.000156693 4.94761e-05 3.68386e-17)
(-0.000154479 5.71956e-05 -7.52525e-17)
(0.000163097 7.20795e-05 -1.59031e-16)
(-0.000153202 6.09232e-05 -7.57896e-17)
(2.43405e-05 0.000233176 5.30722e-18)
(0.000146894 5.28084e-05 1.86146e-17)
(-4.37402e-06 0.000225352 -1.51517e-16)
(-0.00017053 7.50723e-05 2.15132e-16)
(-0.000149557 4.91821e-05 -3.03648e-16)
(0.000150304 5.78765e-05 7.85191e-17)
(-0.000170621 7.51911e-05 9.59543e-17)
(2.1801e-05 0.000116292 6.18168e-17)
(-0.000152948 6.06748e-05 1.50845e-16)
(0.000146497 4.91695e-05 1.34609e-16)
(-1.69873e-06 0.000221078 0)
(-2.89773e-06 0.000190894 -2.16329e-16)
(-0.000153396 6.35584e-05 -1.19796e-16)
(0.000148968 5.07042e-05 -3.95883e-17)
(-1.75103e-06 0.000220478 6.0213e-19)
(0.000180634 7.19693e-05 7.44178e-17)
(-0.000142484 5.77408e-05 2.24994e-16)
(-0.000154946 5.88733e-05 -3.88492e-17)
(-0.00015754 5.36727e-05 0)
(-0.000159439 5.74411e-05 1.74505e-16)
(0.000148517 6.03599e-05 -1.54134e-16)
(-0.000153574 6.03216e-05 -7.3755e-17)
(0.000147482 5.87548e-05 0)
(-3.4662e-07 0.000219338 -1.53812e-16)
(-0.000171513 6.41693e-05 9.20173e-17)
(0.000172843 0.000154707 -2.79115e-16)
(0.000152472 5.82237e-05 0)
(-9.67005e-07 0.000219346 0)
(0.000156382 6.2592e-05 4.51608e-21)
(6.782e-07 0.000218659 -1.53993e-16)
(3.47071e-07 0.000219345 3.0622e-16)
(-0.000153117 6.01463e-05 3.79812e-17)
(-1.38068e-05 0.000226095 1.50639e-16)
(-5.65455e-07 0.000218541 0)
(-1.40459e-06 0.000219563 1.53266e-16)
(-0.000153196 5.97315e-05 0)
(0.000178216 9.60609e-05 0)
(7.42689e-07 0.00021899 0)
(-3.30345e-07 0.000218989 -1.53481e-16)
(-0.000152918 6.29669e-05 0)
(-8.08261e-07 0.000219122 3.08788e-16)
(-0.000154766 5.87407e-05 0)
(-3.13839e-07 0.000219122 -1.54228e-16)
(-0.000153396 5.98317e-05 -2.23382e-16)
(-3.71919e-07 0.000218389 0)
(-0.000151955 6.31075e-05 7.36798e-17)
(-6.99836e-05 0.000250343 -3.59149e-17)
(0.000163206 7.61247e-05 1.90677e-16)
(0.000171534 6.37609e-05 0)
(4.3737e-08 0.000218987 1.10679e-20)
(-8.5843e-07 0.000219308 -1.5192e-16)
(-0.000157321 4.96899e-05 -6.48967e-17)
(0.000146324 6.59108e-05 -1.5676e-16)
(0.000127571 5.2637e-05 0)
(0.000149449 5.76813e-05 2.36396e-16)
(-1.53338e-07 0.000219013 1.53908e-16)
(-0.000152966 5.99136e-05 0)
(-5.41743e-06 0.000221435 1.52814e-16)
(-1.69668e-07 0.000218478 0)
(-3.68493e-07 0.000218837 -1.56103e-16)
(-0.000153939 5.99957e-05 0)
(0.000151045 6.86448e-05 1.48778e-16)
(-0.000154455 5.90956e-05 2.04335e-21)
(4.05242e-08 0.000218406 1.54583e-16)
(0.000152591 5.60785e-05 -3.19512e-16)
(2.49518e-05 0.000126003 0)
(-7.91688e-07 0.000219285 0)
(0.000169849 7.86102e-05 1.11717e-16)
(0.000152637 5.23646e-05 0)
(-1.70355e-05 0.000235134 0)
(-0.000154733 5.84643e-05 -2.68418e-16)
(-5.91637e-06 0.000224385 0)
(-0.000153568 6.01584e-05 7.43308e-17)
(-0.000130056 0.000111217 -4.00296e-17)
(-0.000152821 6.30099e-05 1.53231e-16)
(5.3508e-08 0.000218627 -3.08293e-16)
(-0.000156429 5.86999e-05 4.12635e-17)
(-0.000151953 6.31988e-05 1.47023e-16)
(-2.66997e-07 0.000218743 0)
(-5.07025e-07 0.000218397 -1.51051e-16)
(0.000139792 4.59998e-05 0)
(7.71265e-08 0.000218888 -1.55589e-16)
(1.54953e-07 0.000218647 0)
(-1.03365e-05 0.000227354 1.53357e-16)
(-9.80988e-07 0.000191945 -1.73111e-16)
(-0.000156026 7.13012e-05 8.94554e-17)
(-3.16271e-06 0.000221825 7.48005e-20)
(0.000108647 3.20633e-05 0)
(-0.000160645 5.81722e-05 6.09424e-17)
(-0.000152779 6.39898e-05 3.57229e-17)
(4.77267e-07 0.00021831 3.0859e-16)
(-8.66554e-07 0.00021915 1.53605e-16)
(-0.000156483 6.10671e-05 -3.55054e-16)
(1.38134e-07 0.000218708 1.54429e-16)
(0.000135709 4.06253e-05 4.90811e-21)
(-1.13166e-06 0.000218738 1.52843e-16)
(-0.000155135 5.89597e-05 0)
(-0.000152502 6.14793e-05 3.90241e-17)
(-1.0382e-07 0.000218782 -1.11175e-20)
(0.000149666 7.71129e-05 1.60066e-16)
(-0.000154126 6.04228e-05 -7.83566e-17)
(-0.000151983 6.28705e-05 -6.84963e-17)
(-5.59299e-07 0.000219013 -1.53546e-16)
(0.000149549 5.87152e-05 2.67887e-18)
(-2.01454e-09 0.000218871 -1.11204e-20)
(-0.000155944 5.88056e-05 3.6638e-17)
(6.91364e-07 0.000218463 0)
(-0.000154685 5.8341e-05 0)
(-1.28693e-06 0.000219027 -1.53502e-16)
(1.109e-07 0.000218877 1.54111e-16)
(0.000148314 6.22228e-05 -1.86883e-17)
(-0.000157104 5.47089e-05 1.67409e-16)
(-1.16994e-06 0.000218774 1.52211e-16)
(2.63434e-07 0.000218415 0)
(-0.000153143 6.23715e-05 0)
(-0.000152559 6.29443e-05 1.1688e-16)
(-0.000158364 4.88281e-05 0)
(-8.20737e-06 0.000134156 -8.25224e-17)
(-3.97746e-08 0.000218855 1.54449e-16)
(-0.000152205 6.26572e-05 -1.10762e-16)
(-0.000153028 6.07302e-05 0)
(-0.000152436 5.78586e-05 4.03913e-17)
(-2.02093e-06 0.000219496 1.50104e-16)
(3.89389e-09 0.000218515 -1.11755e-20)
(-0.000153755 5.87534e-05 -3.91723e-17)
(8.9024e-05 1.07264e-05 -1.66854e-16)
(-1.96208e-06 0.000220003 -1.52709e-16)
(-6.54188e-07 0.000219109 1.53988e-16)
(2.73244e-07 0.000218575 1.54656e-16)
(-6.41691e-08 0.000219353 -1.52503e-16)
(0.000182729 9.3099e-05 -1.46325e-16)
(-1.32632e-06 0.000218766 -1.53229e-16)
(-0.00015475 5.84985e-05 0)
(-0.000155776 6.23258e-05 0)
(0.000150484 6.1332e-05 0)
(-3.43093e-07 0.000218488 -1.55105e-16)
(-0.000151983 6.30709e-05 1.89064e-16)
(0.000149374 5.51708e-05 -1.19736e-16)
(-0.000145977 5.93967e-05 2.06749e-16)
(-0.000153541 5.99214e-05 -1.50034e-16)
(-0.00015373 5.94695e-05 -7.71537e-17)
(-0.000165883 7.80311e-05 -7.65383e-17)
(-6.99979e-07 0.000218585 -3.09183e-16)
(5.8906e-07 0.000218535 6.44831e-20)
(-0.000152752 6.39895e-05 -4.41949e-17)
(-0.000153751 6.12903e-05 3.50451e-17)
(-0.000153788 5.96011e-05 -3.84973e-17)
(8.91099e-07 0.000218811 -1.54378e-16)
(1.57687e-07 0.000218532 3.1256e-16)
(-1.0875e-06 0.000218767 -1.54641e-16)
(1.82549e-07 0.000218762 -6.06008e-19)
(-0.000153634 6.05787e-05 3.74326e-17)
(-7.85896e-07 0.000218598 0)
(1.04956e-06 0.000218692 -1.55267e-16)
(6.81516e-07 0.00021846 1.5448e-16)
(9.13672e-07 0.000218826 2.67098e-20)
(-0.000153513 5.9013e-05 7.77687e-17)
(-1.21615e-06 0.000219969 0)
(-0.000154118 5.86073e-05 -1.52853e-16)
(-0.000161154 5.77343e-05 0)
(0.000150741 5.7493e-05 -1.69496e-16)
(-1.10816e-07 0.000218654 -1.20311e-18)
(0.00014277 5.9368e-05 1.50786e-16)
(1.38243e-07 0.000218636 -1.10713e-20)
(-1.31494e-05 0.000224438 0)
(-8.96525e-06 0.000221643 -1.5183e-16)
(-0.00015445 5.87754e-05 0)
(-0.000155376 5.86256e-05 -7.51679e-17)
(1.51977e-06 0.000218508 0)
(-0.000152989 5.91752e-05 -1.63106e-16)
(-0.000153663 6.00264e-05 -8.10333e-17)
(0.000149899 5.99658e-05 1.62853e-16)
(8.46617e-08 0.000218623 -1.54734e-16)
(-1.2691e-06 0.000218772 -1.54792e-16)
(-0.000154447 6.02142e-05 4.23274e-17)
(-2.60269e-07 0.00021864 -1.52618e-16)
(-0.00015217 5.79547e-05 2.37403e-16)
(-1.05382e-06 0.000218552 -1.5413e-16)
(3.05762e-07 0.000218679 -1.10887e-20)
(-0.000157738 7.26335e-05 -1.80241e-16)
(-1.40024e-06 0.00021874 1.52864e-16)
(0.00015093 5.69005e-05 0)
(-0.00015346 6.00738e-05 -3.82872e-17)
(-6.37044e-08 0.00021861 2.4297e-18)
(-0.000154868 5.80257e-05 7.67824e-17)
(-3.72895e-08 0.000218522 -1.21963e-18)
(-0.000153586 5.89322e-05 3.84468e-17)
(-0.000147807 5.31633e-05 0)
(5.84783e-07 0.000218715 -1.11459e-20)
(-0.000167363 7.07307e-05 2.29275e-16)
(1.41881e-07 0.000218806 1.5579e-16)
(0.000143075 7.01433e-05 -4.47836e-17)
(-0.000153788 6.48692e-05 1.48731e-16)
(-4.05082e-08 0.000218655 1.55901e-16)
(0.000111618 4.45887e-05 1.63832e-16)
(-2.82951e-07 0.000218686 1.54915e-16)
(1.88326e-07 0.000218633 2.41735e-18)
(0.000127939 4.6928e-05 1.73133e-16)
(0.000136714 4.87848e-05 -1.61939e-16)
(0.000155322 6.03194e-05 0)
(-0.000171432 6.99222e-05 0)
(-1.28448e-06 0.000218715 -1.21228e-18)
(0.000142179 5.54771e-05 2.13316e-16)
(-1.26354e-06 0.000218561 -1.20363e-18)
(-0.000153871 5.96406e-05 -7.4853e-17)
(0.000143229 4.51981e-05 0)
(1.15858e-06 0.000218641 -3.09001e-16)
(2.00955e-07 0.000218627 -3.10918e-16)
(-0.000153119 6.18183e-05 0)
(-0.00015386 5.89721e-05 0)
(1.47034e-07 0.000218802 -3.08976e-16)
(-4.37571e-06 0.000220876 0)
(-0.000152022 6.46431e-05 -1.4894e-16)
(-2.92286e-06 0.000219879 -3.05162e-16)
(-0.000140079 5.2861e-05 0)
(0.00016038 4.55311e-05 3.99895e-17)
(-7.74346e-10 0.000218383 -1.22471e-18)
(5.14474e-07 0.000218861 1.55669e-16)
(0.000119659 7.47152e-05 -5.36146e-18)
(6.53885e-08 0.000218615 -1.56036e-16)
(-0.000154767 5.72766e-05 1.19955e-16)
(-0.000172484 7.82971e-05 1.05895e-16)
(-1.3821e-06 0.000218677 1.53808e-16)
(-0.000154777 5.7694e-05 1.11048e-16)
(-2.39321e-07 0.000218722 1.56052e-16)
(-1.30565e-06 0.000218591 -1.5437e-16)
(-1.456e-06 0.000218648 -1.53839e-16)
(-0.000152571 6.20617e-05 0)
(-0.000154261 5.79815e-05 -3.79956e-17)
(-1.52839e-07 0.000218587 -6.08613e-19)
(1.32985e-06 0.000218693 0)
(-0.000152356 6.22946e-05 1.51385e-16)
(-0.000153864 5.80697e-05 0)
(1.9801e-07 0.000218663 -1.54977e-16)
(-1.09071e-06 0.000219318 2.40945e-18)
(0.000149713 5.80727e-05 -1.63611e-16)
(2.02165e-07 0.000218635 -3.13039e-16)
(-0.000164657 6.19265e-05 2.60256e-16)
(-8.38665e-08 0.000218644 0)
(-5.54723e-08 0.000218663 1.54488e-16)
(-4.8065e-08 0.000218666 0)
(9.44043e-09 0.000218621 1.54534e-16)
(1.75161e-07 0.000218624 -1.54143e-16)
(0.000122064 5.01132e-05 9.24798e-17)
(5.46436e-08 0.000218575 1.54252e-16)
(9.44136e-08 0.000219168 -1.11697e-20)
(1.07168e-09 0.00021864 1.56044e-16)
(-1.51515e-06 0.000218683 3.08312e-16)
(-0.000154129 5.89752e-05 0)
(-0.000154205 5.90565e-05 -4.00219e-17)
(-1.3266e-06 0.000218619 0)
(-3.19884e-08 0.000218653 0)
(-1.71969e-07 0.000218548 -1.57423e-16)
(1.32968e-06 0.000218754 1.54746e-16)
(1.11526e-06 0.000218735 1.55329e-16)
(-0.0001537 6.03348e-05 1.96345e-16)
(1.18751e-06 0.000218651 1.54896e-16)
(-9.41748e-08 0.000218748 -1.56037e-16)
(-2.04637e-07 0.000218663 0)
(-5.9201e-08 0.000218641 -1.12011e-20)
(-0.000154067 5.92819e-05 7.64786e-17)
(1.31621e-06 0.000218678 0)
(1.25576e-06 0.000218586 1.55004e-16)
(-5.39293e-07 0.000219062 -1.56391e-16)
(-0.000155356 5.78991e-05 0)
(-3.85539e-11 0.000218646 0)
(0.00015104 5.81753e-05 -1.62465e-16)
(-2.30165e-08 0.0002188 1.21816e-18)
(-1.94548e-08 0.000218864 -3.03657e-19)
(-1.05488e-06 0.000218462 -6.03498e-19)
(-1.47534e-06 0.000218601 1.1121e-20)
(-1.17862e-06 0.000218487 6.03992e-19)
(-0.000158764 7.39746e-05 -9.45525e-17)
(-1.41339e-06 0.00021847 1.55137e-16)
(7.4073e-07 0.000218733 0)
(-1.38674e-06 0.000218506 1.54033e-16)
(-1.40825e-06 0.000218556 -1.54297e-16)
(-1.49078e-06 0.000218652 -1.55013e-16)
(-0.000185817 0.000152303 -2.35028e-16)
(-3.49833e-05 4.38303e-05 -2.92802e-16)
(1.36337e-06 0.000218694 -1.55215e-16)
(-1.34509e-07 0.000218612 -1.54726e-16)
(1.36123e-08 0.000218658 -1.54691e-16)
(1.22825e-06 0.000218585 1.55051e-16)
(-0.000154883 5.84268e-05 -1.54269e-16)
(-1.57212e-06 0.000218573 1.54016e-16)
(-1.46765e-07 0.000218672 -1.54436e-16)
(-1.01698e-06 0.000219107 -3.07185e-16)
(-1.0739e-07 0.000218612 -1.2216e-18)
(1.45413e-06 0.000218616 1.54464e-16)
(0.000149938 5.73789e-05 1.62492e-16)
(-4.51026e-07 0.000218757 -1.54465e-16)
(8.277e-08 0.000218647 -1.11129e-20)
(0.000159779 6.57228e-05 -2.00391e-16)
(-4.72268e-08 0.000218633 0)
(-8.64998e-08 0.000218643 0)
(-1.56959e-06 0.00021861 -3.09536e-16)
(-0.000154174 5.91013e-05 7.67383e-17)
(3.11192e-08 0.00021851 -3.05146e-19)
(-1.82324e-06 0.000218685 1.61737e-19)
(0.000150706 5.73891e-05 1.08006e-17)
(-1.67054e-06 0.000218802 1.54729e-16)
(1.65834e-06 0.00021869 1.54708e-16)
(1.52416e-06 0.00021864 -1.54596e-16)
(3.77024e-07 0.000218633 -1.5503e-16)
(-1.78178e-06 0.000218702 1.11163e-20)
(-0.000159321 5.55868e-05 -1.64175e-16)
(-0.000127125 4.68804e-05 2.02274e-16)
(-1.89621e-07 0.00021841 -1.11761e-20)
(-1.14666e-07 0.000218609 -1.54359e-16)
(-0.000152883 6.24786e-05 3.89524e-17)
(1.38772e-07 0.000218678 -1.12015e-20)
(-1.64006e-06 0.000218528 6.13462e-19)
(1.6484e-06 0.000218609 -3.09375e-16)
(7.27439e-07 0.000218391 1.55306e-16)
(1.39441e-06 0.000218551 -1.55305e-16)
(1.37562e-06 0.000218596 -1.55301e-16)
(1.6463e-06 0.000218637 1.54767e-16)
(1.36405e-06 0.000218573 1.51379e-19)
(1.63632e-06 0.000218648 0)
(0.000151108 5.71416e-05 0)
(-1.32583e-06 0.000218672 1.55805e-16)
(-1.09646e-07 0.000218903 0)
(2.98837e-07 0.000218825 1.55233e-16)
(1.63866e-06 0.000218635 0)
(1.62949e-06 0.000218661 1.54819e-16)
(1.6534e-06 0.000218617 -7.55766e-20)
(1.85623e-07 0.000218795 1.51901e-16)
(1.48862e-06 0.000218739 0)
(-3.79351e-07 0.000218864 0)
(-1.36661e-06 0.000218842 -1.55973e-16)
(-0.000153694 5.95849e-05 -1.87615e-21)
(1.44662e-06 0.000218635 0)
(-3.27763e-06 0.000222384 0)
(1.42531e-06 0.000218641 0)
(-0.000150622 5.73814e-05 1.19752e-16)
(1.23152e-07 0.000218627 -1.54551e-16)
(-1.03095e-06 0.000219099 1.55952e-16)
(1.49326e-06 0.000218779 -7.57393e-20)
(-0.000149748 6.3511e-05 4.24213e-17)
(-0.00015306 6.19073e-05 -3.87302e-17)
(1.30883e-06 0.000218726 -1.55296e-16)
(-3.639e-07 0.000218304 0)
(-5.58093e-08 0.000219059 -1.55357e-16)
(1.31994e-06 0.000218748 1.1157e-20)
(1.65315e-06 0.000218599 -1.55174e-16)
(-2.76294e-07 0.00021825 3.08612e-16)
(0.000146047 4.56217e-05 -2.78555e-16)
(0.000151118 5.89053e-05 -3.28328e-16)
(-2.14757e-07 0.00021872 3.10296e-16)
(0.000148869 5.8429e-05 0)
(1.29089e-06 0.00021875 0)
(1.67382e-06 0.000218578 -3.02483e-19)
(-0.000158647 6.30294e-05 -1.40211e-16)
(-0.000153351 6.29819e-05 8.0692e-17)
(1.04794e-07 0.000218547 -7.63482e-20)
(1.29955e-06 0.000218772 1.55335e-16)
(1.47773e-07 0.000218643 -1.54771e-16)
(-0.000140055 0.000134305 7.83088e-17)
(1.23169e-06 0.000218743 6.07141e-19)
(-1.60287e-06 0.000218751 1.54902e-16)
(-1.32848e-07 0.000218967 1.55488e-16)
(-0.000175273 8.97893e-05 -1.53529e-16)
(1.27185e-06 0.00021882 0)
(-9.17036e-08 0.000218665 3.05971e-19)
(-3.25599e-07 0.000218892 -1.54752e-16)
(-0.00015422 5.84715e-05 0)
(0.000160231 4.53787e-05 2.93938e-16)
(-0.000152274 6.39246e-05 4.08909e-17)
(1.21565e-06 0.000218768 -6.07241e-19)
(1.76747e-07 0.000218714 -1.55304e-16)
(-1.42468e-06 0.000218514 -1.55172e-16)
(-0.000153484 6.1711e-05 2.31698e-16)
(1.2256e-06 0.000218843 -1.55502e-16)
(-1.89068e-06 0.000218594 6.04226e-19)
(9.86337e-08 0.000218542 1.52836e-19)
(1.52774e-06 0.000218586 0)
(-1.00956e-07 0.000218988 0)
(1.54341e-06 0.000218567 0)
(1.62187e-07 0.000218744 0)
(-0.000153757 5.86129e-05 -3.85387e-17)
(-1.67815e-06 0.000218508 0)
(-1.10751e-07 0.000218652 0)
(0.000162099 7.66218e-05 1.20011e-16)
(1.33792e-07 0.000218729 0)
(-8.98186e-06 0.000227477 0)
(-4.42732e-08 0.000219008 3.10874e-16)
(8.00908e-08 0.000218543 0)
(0.000150081 5.47667e-05 -3.66596e-17)
(0.000150638 5.84977e-05 0)