/*--------------------------------*- C++ -*----------------------------------*\
  =========                 |
  \\      /  F ield         | OpenFOAM: The Open Source CFD Toolbox
   \\    /   O peration     | Website:  https://openfoam.org
    \\  /    A nd           | Version:  12
     \\/     M anipulation  |
\*---------------------------------------------------------------------------*/
FoamFile
{
    format      ascii;
    class       volVectorField;
    location    "0.29";
    object      U;
}
// * * * * * * * * * * * * * * * * * * * * * * * * * * * * * * * * * * * * * //

dimensions      [0 1 -1 0 0 0 0];

internalField   nonuniform List<vector> 
4428
(
(0.0022059 0.000835762 1.01427e-16)
(-0.002235 0.000919799 -9.03811e-17)
(-0.00201041 0.000920704 0)
(-0.00210075 0.000883235 0)
(0.00202486 0.00166927 8.16375e-17)
(0.00207398 0.00170342 3.20256e-21)
(-0.00200697 0.00113324 0)
(-0.0022542 0.00080572 1.46408e-16)
(0.00215121 0.000869574 -2.49061e-16)
(0.0022147 0.000653261 9.95356e-17)
(-0.00203597 0.000714172 -1.73327e-16)
(0.00207686 0.000852438 -1.76859e-16)
(-0.00230645 0.00050284 -2.03654e-16)
(-0.000730709 0.00259909 -9.58136e-17)
(0.00217139 0.00084578 0)
(0.00197483 0.000732964 0)
(0.0022268 0.00079774 0)
(-0.00203784 0.000711243 0)
(-0.00232157 0.000501669 0)
(0.00219265 0.00085227 0)
(0.000783928 0.000641828 -4.48032e-16)
(-0.0022231 0.00085444 -1.77698e-16)
(-0.00210373 0.000889056 0)
(-0.00227199 0.000789177 0)
(-0.00221271 0.000843286 2.26612e-17)
(-0.00210553 0.000788006 0)
(-0.00212124 0.00110641 1.03354e-16)
(0.00212329 0.000708817 2.07799e-16)
(0.00197697 0.000969509 0)
(-0.00232664 0.000555135 0)
(0.00214426 0.000550527 0)
(-0.00224996 0.000854801 -1.842e-16)
(0.0021886 0.000696002 -9.00177e-17)
(-0.00227687 0.0010975 -2.77415e-16)
(-4.94323e-06 0.00299713 4.6976e-17)
(-0.00224614 0.000871866 1.99858e-16)
(-0.00219418 0.00109394 -4.44086e-21)
(0.00204408 0.00275628 1.27039e-17)
(-0.000347309 0.00259293 -2.62227e-17)
(-0.00210515 0.000919739 0)
(0.0022004 0.000792891 0)
(0.00202679 0.000662798 0)
(0.00211425 0.000723174 9.24301e-17)
(-0.00228652 0.000743374 1.66054e-16)
(0.00220682 0.000713994 0)
(0.00180622 0.000670775 0)
(0.00211933 0.00201499 -9.9781e-17)
(-0.00210339 0.00100926 2.03139e-16)
(-0.00212878 0.000882949 2.24454e-16)
(-0.00219717 0.000959964 0)
(0.00219852 0.000911473 0)
(0.00198781 0.000931315 1.88119e-16)
(0.00223547 0.000638593 -9.13166e-17)
(0.00201455 0.000950598 0)
(0.002051 0.000859126 -1.39781e-17)
(0.00130987 0.000635038 0)
(0.00194528 0.000915559 -9.29907e-17)
(-0.00216173 0.000719853 0)
(0.00183636 0.00196434 1.82956e-16)
(0.00214831 0.000748973 -1.82007e-16)
(0.00224533 0.000865048 1.67093e-16)
(-0.00223698 0.000717175 0)
(0.00196352 0.00078568 2.79947e-16)
(-0.00224447 0.00085033 9.26963e-17)
(-0.00224152 0.000873588 0)
(0.00206664 0.000909149 0)
(-0.00228916 0.000757137 1.73154e-16)
(-0.00211829 0.000900925 -1.85817e-16)
(0.00213009 0.000763762 -1.82182e-16)
(-0.00215963 0.000939418 -3.61901e-16)
(-0.00229738 0.000726105 -9.16112e-17)
(0.00217186 0.000985458 2.12648e-16)
(0.00233861 0.00101025 5.8049e-17)
(-0.0020909 0.000867308 4.46944e-17)
(0.00219944 0.000765689 1.96645e-16)
(-3.81791e-05 0.00297346 -1.8329e-16)
(0.00223104 0.00101674 0)
(0.00229667 0.000881125 0)
(-0.00202449 0.00113935 -1.18141e-16)
(0.00158507 0.000759942 -4.3844e-21)
(0.00196018 0.00100121 -1.97535e-16)
(-0.00228415 0.000727437 0)
(0.00212931 0.00101253 -1.8106e-16)
(0.00213209 0.00087434 -1.72062e-16)
(0.00223095 0.00079331 3.18299e-16)
(-0.00242682 0.000792163 -2.54682e-16)
(-0.000274482 0.00332162 1.15139e-16)
(-0.0022801 0.00083421 0)
(-0.00223883 0.000858516 -9.60321e-17)
(0.00205082 0.000899398 2.04738e-17)
(0.00220049 0.0006677 8.36634e-17)
(0.0022569 0.000808076 -1.59365e-16)
(-0.00225425 0.000898301 0)
(-0.00221726 0.000823869 0)
(-0.00224024 0.000874456 9.81673e-17)
(-0.00218082 0.000902874 1.67117e-16)
(0.00219534 0.000874643 1.13528e-16)
(-0.00224971 0.000853988 -1.199e-16)
(-0.00229974 0.00072052 9.28687e-17)
(0.00207583 0.00109389 0)
(0.0020927 0.000942491 -2.25137e-17)
(0.00215937 0.000843068 0)
(0.00221206 0.000782835 0)
(0.00200269 0.000747602 -1.87983e-16)
(0.00192109 0.000889447 -1.037e-16)
(0.0020408 0.000987172 2.49069e-21)
(0.00214175 0.000881403 1.90322e-16)
(-0.00219805 0.00104229 -1.22453e-16)
(0.00218926 0.000876095 -1.20819e-16)
(0.00211809 0.00102398 0)
(0.00214945 0.000721821 1.64693e-16)
(0.00216304 0.000832335 -1.94801e-16)
(-0.00208825 0.000856295 2.66119e-21)
(0.0020624 0.00078117 1.65961e-16)
(-0.00123496 0.000778259 1.1554e-16)
(-0.00228822 0.000705525 1.80229e-16)
(-0.000505558 0.00288607 0)
(0.000889998 0.000692 5.24741e-17)
(-0.00231666 0.000779339 8.87635e-17)
(0.00229853 0.000883301 -1.12857e-16)
(0.00226933 0.00088555 2.11525e-16)
(-0.00202697 0.00114737 2.41271e-16)
(0.00149648 0.00244813 -1.96891e-16)
(0.00216977 0.000702043 -3.03613e-16)
(-1.72183e-05 0.00299745 1.78755e-16)
(-0.00224558 0.00084959 0)
(-0.00227741 0.000775793 -2.72252e-16)
(0.00207387 0.000853717 9.95072e-17)
(-0.00224243 0.000911847 -3.04094e-16)
(-0.00224242 0.000870978 9.66749e-17)
(-0.00229518 0.000731976 -1.87129e-16)
(-0.00220021 0.000904357 0)
(0.00221005 0.00088156 2.24121e-16)
(0.00212614 0.000790148 0)
(0.00215493 0.000843011 0)
(0.00230256 0.000994961 6.5418e-21)
(0.00224266 0.000934276 -2.43664e-16)
(-0.00228356 0.000714401 -1.82385e-16)
(-0.00224721 0.000872477 -1.83547e-16)
(-0.00222657 0.000902456 1.43946e-16)
(-0.00220726 0.0010541 -1.23704e-16)
(-0.00225092 0.000814088 -9.67466e-17)
(0.00212136 0.000847817 0)
(0.00213161 0.000873326 -1.99425e-16)
(0.002235 0.000840091 0)
(0.00210315 0.000804934 9.67631e-17)
(0.00224971 0.000998536 1.28471e-16)
(-6.08813e-05 0.0021288 -9.13932e-17)
(0.00235319 0.000670483 2.88883e-16)
(6.10019e-06 0.00298983 4.54398e-17)
(-0.00224412 0.000849187 -1.99509e-16)
(-0.00146589 0.000646651 1.00282e-16)
(0.00209639 0.000704435 -9.60084e-21)
(0.00233297 0.000811863 -2.48618e-16)
(-0.00224093 0.000870798 2.91589e-16)
(0.00228006 0.000855731 0)
(0.00205331 0.00138839 -1.77124e-16)
(0.00222165 0.000669933 -9.48466e-17)
(0.00216228 0.000805243 -1.78764e-16)
(-0.00226298 0.00074818 -9.12328e-17)
(-0.00223183 0.000925841 1.95444e-16)
(0.00218046 0.000860366 0)
(0.00232893 0.000740627 0)
(-0.000786982 0.000351571 -2.17176e-16)
(-0.00237924 0.000981191 1.19561e-16)
(-0.00228528 0.000720617 0)
(-0.00223809 0.000820897 0)
(0.00232518 0.000789355 0)
(-0.0022346 0.000869197 1.90112e-21)
(-0.00226106 0.000964118 9.3677e-17)
(-0.00229418 0.000761522 -9.37981e-17)
(0.00225394 0.000888585 3.94722e-21)
(-0.00225929 0.000855255 0)
(0.0020458 0.000857858 0)
(0.00207303 0.00268154 -1.16371e-17)
(-0.00240575 0.000996893 2.29073e-16)
(0.00226039 0.000821723 0)
(0.0019899 0.000981734 2.14585e-16)
(0.00210976 0.000881132 2.17936e-16)
(-0.00240518 0.000963602 1.14316e-16)
(-0.000248942 0.00302516 -7.10416e-21)
(-0.00216423 0.000883089 1.75076e-16)
(-0.00226109 0.000794449 1.91948e-16)
(0.00206038 0.000797838 0)
(-0.00224324 0.000849484 3.00567e-16)
(-0.00224145 0.00102595 -9.52156e-17)
(0.0022254 0.000859629 0)
(-0.00223801 0.000869646 0)
(0.00188762 0.000830956 3.43566e-16)
(0.00217604 0.000959278 0)
(0.00216718 0.00079375 0)
(0.00226867 0.00107075 2.58465e-17)
(0.00220581 0.000788815 0)
(0.00224881 0.00092248 -3.67866e-16)
(-0.00218617 0.00101316 0)
(-0.0021737 0.000997968 -1.80865e-16)
(-0.00217395 0.000995252 2.7092e-16)
(-0.00213923 0.000978162 8.88764e-17)
(0.00304943 0.00176405 1.48754e-16)
(-0.000671604 0.00320185 0)
(0.0022126 0.00100714 2.13761e-16)
(-0.0022588 0.000818382 -1.94078e-16)
(0.0017339 0.000928042 -1.90306e-16)
(-0.00227045 0.000744393 0)
(0.00201977 0.000774073 -1.76629e-16)
(0.00218853 0.000768936 -2.98055e-18)
(-0.00223015 0.000870758 9.32569e-17)
(-0.000494631 0.00346425 -1.77904e-16)
(-0.00106924 0.00300137 1.11839e-17)
(0.00148468 0.000782377 0)
(0.00223536 0.000953947 0)
(0.00238495 0.000863659 0)
(0.00223057 0.000938244 5.95215e-21)
(-0.00225521 0.000795614 0)
(0.00217614 0.000835038 0)
(-0.00219966 0.000990305 -1.40087e-16)
(-0.00217536 0.000975625 1.83782e-16)
(3.26703e-05 0.00299383 -1.84689e-16)
(-0.00210988 0.000791172 1.99296e-16)
(-0.00216442 0.000989228 -4.53587e-17)
(0.0022325 0.000925403 1.95362e-16)
(0.00231464 0.000813682 -6.15104e-17)
(-0.00222621 0.000865238 1.85467e-16)
(0.00226444 0.000970855 0)
(-0.00218496 0.000996738 0)
(-0.00224338 0.000850537 0)
(-0.00228186 0.000865658 -1.08725e-16)
(0.00216728 0.000782908 -1.93041e-16)
(0.00207245 0.000863622 3.7274e-21)
(-0.0022375 0.000869799 0)
(-0.00224556 0.000816436 9.83229e-17)
(-0.0013773 0.00273322 0)
(0.00188471 0.00110634 0)
(0.000323587 0.00329592 8.61727e-17)
(0.00211054 0.000842095 5.74621e-17)
(-0.00219662 0.00096733 0)
(-0.00218529 0.000984472 0)
(-0.00218349 0.000978777 1.88215e-16)
(-0.00219278 0.000975891 -1.86171e-16)
(-0.00226638 0.000756147 2.97766e-16)
(-0.000220934 0.000543036 5.13886e-17)
(-0.00226362 0.000862172 -5.90053e-17)
(-0.00216348 0.000977014 6.23691e-17)
(0.00219402 0.000857829 2.23733e-17)
(-0.00225155 0.000802137 -9.62573e-17)
(-0.000617724 0.00223294 -1.01154e-16)
(-0.00222728 0.00106069 1.89324e-16)
(-0.00225252 0.00080413 1.92814e-16)
(0.00259609 0.00173662 0)
(-0.000252125 0.00226141 0)
(-0.0023441 0.000974972 6.12407e-21)
(0.00212831 0.000847394 2.04393e-16)
(0.00226056 0.000913238 -1.05648e-16)
(-0.00217973 0.00097655 1.81886e-16)
(0.00196564 0.000734899 -1.31316e-16)
(0.000381371 0.000261426 1.07918e-16)
(-0.00218702 0.000979401 -3.65583e-16)
(5.2502e-05 0.0029743 0)
(-0.0025475 0.000933485 -3.6678e-17)
(-0.00220041 0.000976394 -2.1176e-16)
(-0.00219246 0.000977042 1.90017e-16)
(-0.000774699 0.000393916 2.17217e-16)
(-0.00224319 0.00082165 0)
(0.00234007 0.000527666 1.23011e-16)
(-0.00218346 0.000974006 -9.37836e-17)
(-0.00222941 0.000866971 -1.00071e-16)
(0.00221526 0.000802878 0)
(-0.00218827 0.000978643 0)
(-0.00150945 0.00330923 1.37274e-16)
(-0.0023138 0.000780908 -1.83735e-16)
(0.00217144 0.000751308 0)
(0.00227256 0.0010143 2.37175e-16)
(0.00217414 0.000866368 1.23123e-17)
(-0.000463714 0.00241411 2.58437e-16)
(-0.00224487 0.00084858 0)
(0.00210956 0.000887743 1.9813e-16)
(0.00219183 0.000843701 -2.63559e-16)
(-0.00224755 0.000815316 1.94295e-16)
(0.0022986 0.00107576 0)
(0.00036656 0.000259117 -1.10465e-16)
(-0.00239974 0.00100515 -2.32237e-22)
(-0.000416027 0.00308861 9.63392e-17)
(0.00218427 0.000810304 0)
(-0.00226245 0.000765373 -2.99173e-16)
(0.00201539 0.00114809 3.93341e-16)
(0.00198308 0.00116877 -9.12429e-17)
(0.0022045 0.000861475 -1.32949e-17)
(0.00220298 0.000740857 -1.26245e-16)
(0.00220096 0.000867885 1.94435e-16)
(0.00223223 0.000819194 0)
(-0.00246258 0.000761671 1.43576e-16)
(-0.00232309 0.000755333 -1.87089e-16)
(-0.00220069 0.000963968 -7.47188e-19)
(0.00209213 0.000988805 0)
(0.00204804 0.000872563 2.14669e-16)
(0.000703396 0.00026525 2.31985e-16)
(-0.00223111 0.000833117 1.95532e-16)
(-0.00218184 0.000972284 2.07961e-16)
(-0.00222929 0.000995581 0)
(-0.0013809 0.00323151 1.96758e-16)
(-0.00225092 0.000820583 5.92249e-21)
(0.00207604 0.000761694 1.14693e-16)
(-0.00224095 0.000826119 0)
(-0.00219466 0.000974709 -1.18782e-17)
(-0.00219416 0.000981629 0)
(-0.00219325 0.000978623 -1.8591e-16)
(-0.00226205 0.000869003 0)
(-0.000289904 0.00328822 -1.1959e-16)
(0.00150314 0.000823415 -3.44556e-16)
(0.00218674 0.00107707 1.25595e-16)
(-0.00224752 0.000821718 9.797e-17)
(0.00214655 0.000846327 0)
(0.0022952 0.00105871 -1.26564e-16)
(-0.000381004 0.00327159 -1.90451e-16)
(0.00135568 0.000456235 -2.23905e-16)
(0.00217548 0.000890633 0)
(0.00224066 0.00097308 0)
(0.00215625 0.000916896 -1.87614e-16)
(-0.00225962 0.000776478 0)
(-0.00223214 0.000851817 1.96568e-16)
(-0.00054986 0.00359893 -6.17595e-18)
(-0.00236707 0.000990525 -1.0149e-16)
(-0.00208112 0.000801148 6.10869e-17)
(0.00213292 0.000825692 3.89319e-16)
(-0.00159245 0.00492118 -1.46073e-16)
(0.00365091 0.00143582 -1.97873e-16)
(0.00207262 0.000913346 -2.12582e-16)
(-0.00221943 0.000854425 9.64296e-17)
(-0.0022186 0.00102463 -1.21772e-17)
(-0.00217576 0.000988151 -1.89493e-16)
(0.00217141 0.000827658 2.09787e-16)
(-0.0022212 0.000851729 0)
(-0.00224194 0.000828168 9.90838e-17)
(-0.00254369 0.000926755 1.50956e-16)
(-0.00225398 0.00105742 0)
(-0.00222173 0.00100048 0)
(0.0023204 0.00104601 -1.23281e-16)
(0.00206425 0.000805744 0)
(-0.00223663 0.000853395 0)
(0.00208678 0.000771697 0)
(-0.00219739 0.00098151 1.18322e-17)
(-0.00222024 0.00097412 7.54729e-19)
(0.00202994 0.00069718 0)
(0.00220039 0.000842576 1.92888e-16)
(-5.53059e-05 0.00299181 0)
(0.00215496 0.000736459 0)
(-0.00224847 0.000824447 4.92533e-17)
(-0.00226347 0.000813552 -3.01481e-16)
(0.0002359 0.00133998 0)
(-0.0022272 0.000852845 -1.93416e-16)
(-0.00229582 0.000518286 9.23811e-17)
(-0.00228743 0.00090717 -4.24444e-21)
(-0.00240327 0.00082132 -2.43393e-16)
(-0.00254408 0.000909137 1.51158e-16)
(-0.00219806 0.00102282 0)
(-0.00226488 0.000786852 2.02113e-16)
(-0.00222426 0.000854584 1.00294e-16)
(0.00218717 0.000824327 0)
(-0.00220458 0.000772939 1.62544e-16)
(-0.00223108 0.00084039 -2.68737e-16)
(4.08345e-05 0.00291441 0)
(-0.00218955 0.000973111 -2.80434e-16)
(-0.00227076 0.00090912 0)
(-0.00224897 0.000838569 0)
(0.00222879 0.000831997 2.03116e-16)
(-0.00224009 0.000819868 1.01384e-16)
(0.0019465 0.000715266 2.1478e-16)
(0.00223275 0.000892203 -2.0393e-16)
(-0.00157927 0.000759141 0)
(-0.00237842 0.000802515 0)
(-0.00222794 0.000853761 0)
(0.00218273 0.000846724 -2.12707e-16)
(0.00218763 0.000917085 0)
(0.00219309 0.000842555 0)
(-0.00238745 0.00103619 -2.9936e-16)
(0.0002794 0.00296498 2.17982e-16)
(-0.00220951 0.00101579 1.92277e-16)
(0.00223679 0.000694279 -2.15586e-16)
(-1.78938e-05 0.00155868 -6.19429e-17)
(-0.0022394 0.000873503 0)
(-0.00223708 0.000941054 2.99752e-16)
(-0.00214623 0.000996726 -1.80338e-16)
(0.000201221 0.00227839 1.08286e-16)
(0.00228871 0.00050057 0)
(0.00238257 0.000643563 1.14706e-16)
(0.00210806 0.000895035 1.778e-16)
(-0.000457244 0.000348971 2.10733e-16)
(-0.00222914 0.000833661 -9.03923e-17)
(0.0022019 0.000868169 0)
(0.00136632 0.000510972 0)
(0.00186606 0.000584214 3.86487e-16)
(-0.00223037 0.000856327 0)
(0.00231222 0.00076966 -1.07228e-16)
(-0.00237234 0.000633265 1.26092e-16)
(-0.00224336 0.000853721 9.58111e-17)
(0.0021254 0.000853665 -1.95165e-16)
(-0.0024849 0.000939234 -1.35978e-16)
(-0.00207335 0.00086258 1.84897e-16)
(-0.00244225 0.00112407 1.01007e-16)
(-0.00166625 0.000647719 -1.08942e-16)
(-0.00225011 0.000849668 0)
(-0.00223937 0.000852132 0)
(-0.000123528 0.00112154 0)
(-2.22396e-05 0.00290869 -2.50977e-16)
(-0.00240107 0.000858652 0)
(-0.0022668 0.00110413 -8.72295e-17)
(0.0021662 0.000850527 3.7616e-16)
(0.00208434 0.00088206 -1.11174e-16)
(0.00216812 0.000785356 3.79525e-16)
(0.00219727 0.000931189 -5.49148e-17)
(0.00218474 0.000830402 -5.54964e-21)
(-0.00222041 0.000893455 -4.91285e-17)
(-0.00222771 0.000861776 -9.63659e-17)
(-0.000180952 0.00344062 5.97381e-18)
(-0.00223468 0.000859119 -1.95295e-16)
(-0.00222046 0.00092688 -5.15026e-17)
(0.0020905 0.000905295 0)
(-0.00223831 0.000858231 -9.75861e-17)
(-0.00235121 0.000861343 -3.58915e-16)
(-0.00216402 0.000973166 -1.39393e-17)
(-0.00225116 0.000842896 0)
(-0.0022685 0.000746954 4.83492e-17)
(-0.00223866 0.000829196 -9.87659e-17)
(0.00237938 0.00104898 -2.08721e-16)
(-0.00222262 0.00087974 -9.94707e-17)
(0.000290004 0.00328795 6.96537e-18)
(0.00213444 0.000781122 2.44309e-17)
(-6.36033e-05 0.00326807 -1.98857e-16)
(-0.0024812 0.000995873 2.82347e-16)
(-0.00216439 0.000729669 -3.98526e-16)
(0.00218461 0.000843354 1.03053e-16)
(-0.00248618 0.000996463 1.25934e-16)
(0.000336623 0.00171662 8.11326e-17)
(-0.00221503 0.000877492 1.97978e-16)
(0.0021192 0.000733279 1.76669e-16)
(-2.42262e-05 0.00320766 0)
(-6.30165e-05 0.00288959 -2.83921e-16)
(-0.00222415 0.000917904 -1.57226e-16)
(0.00214855 0.000734176 -5.1958e-17)
(-2.51283e-05 0.00319927 7.90261e-19)
(0.00261297 0.00103795 9.76696e-17)
(-0.00206395 0.000821534 2.95294e-16)
(-0.00224505 0.000852845 -5.0988e-17)
(-0.00227139 0.000815949 0)
(-0.00233924 0.000871515 2.29028e-16)
(0.00215519 0.000869962 -2.02294e-16)
(-0.0022279 0.000864437 -9.68003e-17)
(0.00216243 0.000845366 0)
(-5.22493e-06 0.00318118 -2.01869e-16)
(-0.00233395 0.000902981 1.20767e-16)
(0.00250295 0.00224954 -3.6632e-16)
(0.00221161 0.000840468 0)
(-1.42355e-05 0.00318185 0)
(0.00227165 0.000912476 5.95845e-21)
(8.97322e-06 0.00317296 -2.02107e-16)
(4.99296e-06 0.00317855 4.01897e-16)
(-0.00222067 0.000870547 4.98487e-17)
(-0.000197395 0.00327424 1.97704e-16)
(-8.50538e-06 0.00317032 0)
(-2.05915e-05 0.00318543 2.01153e-16)
(-0.00222301 0.000866468 0)
(0.00254668 0.00144568 0)
(9.96819e-06 0.00317703 0)
(-4.98432e-06 0.00317647 -2.01436e-16)
(-0.00221464 0.000906092 0)
(-1.11622e-05 0.00317905 4.05266e-16)
(-0.00224007 0.00084764 0)
(-4.72545e-06 0.00317845 -2.02416e-16)
(-0.00222444 0.000865984 -2.9318e-16)
(-5.65848e-06 0.0031683 0)
(-0.00220249 0.000911831 9.67017e-17)
(-0.000997874 0.0036406 -4.71357e-17)
(0.00231618 0.001018 2.50253e-16)
(0.0023415 0.000881728 0)
(6.34316e-07 0.00317422 1.45269e-20)
(-1.2347e-05 0.00318044 -1.99386e-16)
(-0.00225319 0.000758886 -8.51738e-17)
(0.00212954 0.000950753 -2.05741e-16)
(0.0019589 0.000791114 0)
(0.00217238 0.000830644 3.1026e-16)
(-2.40435e-06 0.00317704 2.01996e-16)
(-0.00221358 0.000870387 0)
(-7.80413e-05 0.00321252 2.0056e-16)
(-2.1909e-06 0.00317008 0)
(-5.51563e-06 0.00317482 -2.04877e-16)
(-0.00223291 0.000870222 0)
(0.00219034 0.000909917 1.95264e-16)
(-0.00223966 0.000856643 2.68359e-21)
(8.69271e-07 0.00316918 2.02882e-16)
(0.00221993 0.000812099 -4.19345e-16)
(0.000318369 0.00191239 0)
(-1.13402e-05 0.00318015 0)
(0.00246234 0.00113691 1.46622e-16)
(0.00215307 0.000757301 0)
(-0.000250144 0.00340672 0)
(-0.00223521 0.000846515 -3.52286e-16)
(-8.51666e-05 0.00325379 0)
(-0.00222685 0.00086374 9.7556e-17)
(-0.00188918 0.00161153 -5.25367e-17)
(-0.00221649 0.000906926 2.0111e-16)
(7.77322e-07 0.00316957 -4.04618e-16)
(-0.00227878 0.000821834 5.41566e-17)
(-0.00220015 0.000911139 1.92961e-16)
(-3.91581e-06 0.00317336 0)
(-7.88303e-06 0.00316865 -1.98246e-16)
(0.0020728 0.000714383 0)
(9.7712e-07 0.00317545 -2.04203e-16)
(1.7731e-06 0.00317423 0)
(-0.000148307 0.00329982 2.01272e-16)
(1.85213e-05 0.00289966 -2.27201e-16)
(-0.0021242 0.000887377 1.17404e-16)
(-4.60939e-05 0.00321823 9.81713e-20)
(0.00157794 0.000464937 0)
(-0.00226752 0.000833901 7.99841e-17)
(-0.00213368 0.000919142 4.68849e-17)
(6.52899e-06 0.00316735 4.05008e-16)
(-1.25903e-05 0.00317895 2.01598e-16)
(-0.00227623 0.000861919 -4.65992e-16)
(2.00259e-06 0.00317074 2.0268e-16)
(0.00202912 0.000665922 6.78601e-21)
(-1.6012e-05 0.00317272 2.00598e-16)
(-0.002245 0.000852563 0)
(-0.00221433 0.000887988 5.12173e-17)
(-1.77594e-06 0.0031739 -1.45939e-20)
(0.00215717 0.00104125 2.10078e-16)
(-0.00223578 0.000869883 -1.0284e-16)
(-0.00220365 0.000905781 -8.98984e-17)
(-7.84217e-06 0.00317786 -2.01521e-16)
(0.00217158 0.000850434 3.51589e-18)
(-6.25195e-07 0.00317521 -1.4598e-20)
(-0.00224879 0.000850384 4.80858e-17)
(1.02743e-05 0.00316963 0)
(-0.00223875 0.000846822 0)
(-1.83473e-05 0.00317781 -2.01463e-16)
(1.59374e-06 0.00317283 2.02262e-16)
(0.00217371 0.000898922 -2.45276e-17)
(-0.00228534 0.00077832 2.19717e-16)
(-1.64233e-05 0.00317313 1.99768e-16)
(3.98966e-06 0.00316936 0)
(-0.00221962 0.000899655 0)
(-0.00220874 0.000908299 1.534e-16)
(-0.00227764 0.000731817 0)
(-0.000111475 0.00197085 -1.08307e-16)
(-6.12649e-07 0.0031749 2.02706e-16)
(-0.00220374 0.000904784 -1.4537e-16)
(-0.00222434 0.000861195 0)
(-0.0022117 0.000842962 5.3012e-17)
(-2.99137e-05 0.00318429 1.97003e-16)
(2.15973e-07 0.00317037 -1.46716e-20)
(-0.00222714 0.000852135 -5.1412e-17)
(0.00129008 0.000155412 -2.18992e-16)
(-2.82276e-05 0.00319116 -2.00422e-16)
(-8.8815e-06 0.00317841 2.02101e-16)
(4.56106e-06 0.00317043 2.02978e-16)
(-2.6535e-07 0.00318008 -2.00152e-16)
(0.00264932 0.00134022 -1.92044e-16)
(-1.85032e-05 0.00317327 -2.01105e-16)
(-0.00224204 0.000842596 0)
(-0.00217207 0.000776717 0)
(0.00208727 0.000791174 0)
(-4.83372e-06 0.00317016 -2.03566e-16)
(-0.00220086 0.00091117 2.48139e-16)
(0.00214604 0.0008012 -1.57149e-16)
(-0.00213542 0.000863157 2.7135e-16)
(-0.00222753 0.00086295 -1.96913e-16)
(-0.00223057 0.000861458 -1.01261e-16)
(-0.00240327 0.00113167 -1.00453e-16)
(-8.77864e-06 0.00317309 -4.05785e-16)
(8.62694e-06 0.00317021 8.46294e-20)
(-0.00225256 0.000920299 -5.80037e-17)
(-0.00223162 0.000896735 4.59952e-17)
(-0.00223094 0.000867794 -5.0526e-17)
(1.26161e-05 0.00317409 -2.02613e-16)
(2.7394e-06 0.00317019 4.10218e-16)
(-1.53346e-05 0.00317357 -2.02958e-16)
(2.74715e-06 0.00317359 -7.95353e-19)
(-0.00222461 0.000883708 4.91288e-17)
(-1.06435e-05 0.00317193 0)
(1.50201e-05 0.00317251 -2.0378e-16)
(1.03774e-05 0.00316905 2.02746e-16)
(1.29501e-05 0.00317424 3.50541e-20)
(-0.00223454 0.00083581 1.02068e-16)
(-1.79275e-05 0.00319126 0)
(-0.00223402 0.000849623 -2.00613e-16)
(-0.00227091 0.000825061 0)
(0.00218548 0.000837259 -2.22455e-16)
(-1.1678e-06 0.00317223 -1.57902e-18)
(0.00210366 0.000833642 1.979e-16)
(1.97254e-06 0.00317373 -1.45316e-20)
(-0.000195425 0.00325606 0)
(-0.00012936 0.00321417 -1.99267e-16)
(-0.00223385 0.000852958 0)
(-0.00225236 0.000849854 -9.86547e-17)
(2.14708e-05 0.00316826 0)
(-0.00221499 0.000859947 -2.1407e-16)
(-0.00222811 0.000873791 -1.06353e-16)
(0.00217422 0.000863468 2.13738e-16)
(1.22639e-06 0.00316957 -2.0308e-16)
(-1.78626e-05 0.00317368 -2.03156e-16)
(-0.00223804 0.000896638 5.55529e-17)
(-3.37642e-06 0.00317414 -2.00303e-16)
(-0.00220589 0.000838884 3.11582e-16)
(-1.43656e-05 0.00317132 -2.02287e-16)
(4.54941e-06 0.00317303 -1.456e-20)
(-0.00219943 0.000919235 -2.36555e-16)
(-1.94812e-05 0.00317296 2.00626e-16)
(0.00218976 0.000828697 0)
(-0.00222523 0.000870059 -5.02504e-17)
(-1.18661e-06 0.00317153 3.18886e-18)
(-0.00223754 0.000836842 1.00774e-16)
(-5.15554e-07 0.00317078 -1.6007e-18)
(-0.00222589 0.00085494 5.04598e-17)
(-0.00209759 0.000787746 0)
(8.27285e-06 0.00317292 -1.46305e-20)
(-0.00242893 0.00102288 3.00912e-16)
(1.9036e-06 0.00317461 2.04467e-16)
(0.00200211 0.00103227 -5.87767e-17)
(-0.00210863 0.000952456 1.95203e-16)
(-6.96463e-07 0.00317265 2.04612e-16)
(0.00162284 0.000635838 2.15024e-16)
(-4.14563e-06 0.00317267 2.03317e-16)
(2.39968e-06 0.00317416 3.17264e-18)
(0.00186123 0.000678883 2.2723e-16)
(0.00199775 0.000694366 -2.12538e-16)
(0.00226999 0.000904191 0)
(-0.00236101 0.000961267 0)
(-1.79585e-05 0.00317286 -1.59105e-18)
(0.00206584 0.000782195 2.79967e-16)
(-1.72837e-05 0.00317136 -1.5797e-18)
(-0.00223087 0.00086289 -9.82415e-17)
(0.0020207 0.000704201 0)
(1.63642e-05 0.00317136 -4.05548e-16)
(2.66672e-06 0.00317196 -4.08063e-16)
(-0.00221844 0.000893934 0)
(-0.00223397 0.000834459 0)
(1.82454e-06 0.0031744 -4.05514e-16)
(-6.35992e-05 0.0032047 0)
(-0.00222191 0.000910383 -1.95477e-16)
(-4.2731e-05 0.00319024 -4.00508e-16)
(-0.00202725 0.000728834 0)
(0.00228302 0.000751838 5.2484e-17)
(2.49899e-07 0.0031687 -1.60737e-18)
(7.1616e-06 0.00317545 2.04308e-16)
(0.00173583 0.0010811 -7.0367e-18)
(8.42481e-07 0.00317193 -2.0479e-16)
(-0.00224717 0.000826904 1.57436e-16)
(-0.00233996 0.00108849 1.3898e-16)
(-1.92915e-05 0.00317235 2.01865e-16)
(-0.00223837 0.000836082 1.45746e-16)
(-3.45541e-06 0.00317341 2.0481e-16)
(-1.7864e-05 0.00317175 -2.02603e-16)
(-2.02138e-05 0.00317186 -2.01905e-16)
(-0.00220979 0.000898344 0)
(-0.002235 0.000839614 -4.98677e-17)
(-2.24246e-06 0.00317136 -7.98772e-19)
(1.84529e-05 0.00317249 0)
(-0.00220687 0.000894053 1.98686e-16)
(-0.00222448 0.000839674 0)
(2.86887e-06 0.0031701 -2.03399e-16)
(-1.52499e-05 0.00318228 3.16227e-18)
(0.00217026 0.000843493 -2.14732e-16)
(2.83428e-06 0.00317243 -4.10846e-16)
(-0.00239514 0.000950912 3.41571e-16)
(-1.15584e-06 0.00317215 0)
(-1.05936e-06 0.00317465 2.02757e-16)
(-6.06219e-07 0.00317252 0)
(-1.72344e-07 0.00317378 2.02818e-16)
(2.29365e-06 0.00317167 -2.02305e-16)
(0.00188356 0.000725665 1.21376e-16)
(8.5259e-07 0.00317113 2.02447e-16)
(1.44302e-06 0.00317794 -1.46562e-20)
(-4.35455e-08 0.00317211 2.048e-16)
(-2.0947e-05 0.00317251 4.04642e-16)
(-0.00223723 0.000854093 0)
(-0.00223429 0.000862157 -5.2527e-17)
(-1.81717e-05 0.00317216 0)
(-4.15832e-07 0.00317228 0)
(-2.09309e-06 0.00317103 -2.0661e-16)
(1.85433e-05 0.00317349 2.03096e-16)
(1.53044e-05 0.00317383 2.03861e-16)
(-0.00223045 0.000866288 2.57694e-16)
(1.64673e-05 0.00317204 2.03292e-16)
(-1.23924e-06 0.00317426 -2.04791e-16)
(-3.04298e-06 0.00317237 0)
(-8.28002e-07 0.00317213 -1.47049e-20)
(-0.00223502 0.000861421 1.00375e-16)
(1.83198e-05 0.00317241 0)
(1.72417e-05 0.00317155 2.03434e-16)
(-7.41479e-06 0.00317831 -2.05255e-16)
(-0.00223991 0.000835891 0)
(-3.36801e-08 0.0031722 0)
(0.00219091 0.000842573 -2.13229e-16)
(-4.02027e-07 0.00317429 1.59877e-18)
(-3.08156e-07 0.00317497 -3.98534e-19)
(-1.50973e-05 0.00316952 -7.92058e-19)
(-2.02225e-05 0.00317167 1.46005e-20)
(-1.63827e-05 0.00317061 7.92706e-19)
(-0.00221763 0.000951164 -1.24094e-16)
(-1.95199e-05 0.00317036 2.03608e-16)
(1.05593e-05 0.0031701 0)
(-1.91062e-05 0.00317075 2.0216e-16)
(-1.93359e-05 0.00317134 -2.02506e-16)
(-2.03716e-05 0.00317261 -2.03447e-16)
(-0.00269505 0.00220396 -3.08458e-16)
(-0.000513832 0.000637845 -3.84297e-16)
(1.88464e-05 0.00317291 -2.03711e-16)
(-1.8976e-06 0.00317387 -2.0307e-16)
(2.20674e-07 0.0031746 -2.03024e-16)
(1.69061e-05 0.00317147 2.03496e-16)
(-0.00224579 0.000847187 -2.02472e-16)
(-2.16841e-05 0.00317089 2.02138e-16)
(-1.80991e-06 0.00317273 -2.02688e-16)
(-1.44089e-05 0.00317879 -4.03162e-16)
(-1.67967e-06 0.00317167 -1.60328e-18)
(2.01182e-05 0.00317148 2.02726e-16)
(0.00217402 0.000834114 2.13263e-16)
(-6.79362e-06 0.00317364 -2.02727e-16)
(1.24459e-06 0.00317211 -1.45888e-20)
(0.00231558 0.000957569 -2.63003e-16)
(-6.79952e-07 0.003172 0)
(-1.44531e-06 0.0031721 0)
(-2.15255e-05 0.00317162 -4.06249e-16)
(-0.00223441 0.000857578 1.00716e-16)
(4.00123e-07 0.00317027 -4.00488e-19)
(-2.50045e-05 0.00317268 2.12275e-19)
(0.00218985 0.00080402 1.41755e-17)
(-2.29879e-05 0.00317406 2.03073e-16)
(2.277e-05 0.0031728 2.03046e-16)
(2.08262e-05 0.00317235 -2.02899e-16)
(5.25603e-06 0.00317196 -2.03469e-16)
(-2.44222e-05 0.00317297 1.45936e-20)
(-0.00232337 0.00083349 -2.15472e-16)
(-0.00192445 0.000752915 2.65476e-16)
(-2.06016e-06 0.00316911 -1.46737e-20)
(-1.35464e-06 0.00317371 -2.02588e-16)
(-0.00221421 0.000898358 5.11233e-17)
(2.01105e-06 0.00317034 -1.47052e-20)
(-2.25168e-05 0.00317067 8.0514e-19)
(2.26351e-05 0.00317163 -4.06038e-16)
(1.04816e-05 0.00316868 2.03831e-16)
(1.92575e-05 0.00317112 -2.03829e-16)
(1.89344e-05 0.00317181 -2.03824e-16)
(2.25974e-05 0.00317206 2.03123e-16)
(1.88984e-05 0.00317121 1.98677e-19)
(2.24279e-05 0.00317212 0)
(0.00219077 0.000828343 0)
(-1.82892e-05 0.00317229 2.04486e-16)
(-1.49442e-06 0.0031756 0)
(4.1374e-06 0.0031743 2.03734e-16)
(2.24762e-05 0.00317204 0)
(2.23829e-05 0.00317228 2.03191e-16)
(2.2667e-05 0.00317183 -9.91902e-20)
(2.31423e-06 0.00317461 1.99361e-16)
(2.0379e-05 0.00317337 0)
(-6.03147e-06 0.00317524 0)
(-1.90331e-05 0.00317466 -2.04706e-16)
(-0.00223035 0.000860176 -2.47905e-21)
(2.00343e-05 0.00317192 0)
(-4.6634e-05 0.00322636 0)
(1.96759e-05 0.00317195 0)
(-0.00217571 0.000830458 1.57169e-16)
(1.54093e-06 0.00317406 -2.0284e-16)
(-1.4203e-05 0.00317894 2.04679e-16)
(2.05766e-05 0.00317373 -9.94037e-20)
(-0.00219122 0.000911472 5.56762e-17)
(-0.00221746 0.000900807 -5.08316e-17)
(1.79755e-05 0.00317323 -2.03818e-16)
(-5.48031e-06 0.00316705 0)
(-7.50943e-07 0.00317746 -2.03898e-16)
(1.82497e-05 0.00317342 1.4645e-20)
(2.25967e-05 0.00317171 -2.03657e-16)
(-2.0359e-06 0.00316464 4.05037e-16)
(0.0021031 0.000736686 -3.65593e-16)
(0.00218113 0.000841612 -4.30916e-16)
(-3.21375e-06 0.00317315 4.07246e-16)
(0.00215675 0.000851981 0)
(1.78125e-05 0.00317339 0)
(2.29715e-05 0.00317115 -3.96993e-19)
(-0.00226568 0.000896141 -1.84021e-16)
(-0.00222639 0.000908797 1.05905e-16)
(1.39297e-06 0.0031709 -1.00203e-19)
(1.79849e-05 0.00317364 2.03869e-16)
(1.90804e-06 0.00317213 -2.03128e-16)
(-0.0020361 0.00194423 1.02776e-16)
(1.70383e-05 0.0031733 7.96839e-19)
(-2.20349e-05 0.00317403 2.033e-16)
(-1.83289e-06 0.00317635 2.0407e-16)
(-0.00254129 0.0013005 -2.01498e-16)
(1.75948e-05 0.00317427 0)
(-1.2941e-06 0.0031725 4.0157e-19)
(-4.89734e-06 0.00317538 -2.03103e-16)
(-0.0022351 0.000847461 0)
(0.0022372 0.000610101 3.85783e-16)
(-0.0021989 0.000909244 5.36676e-17)
(1.68378e-05 0.0031736 -7.9697e-19)
(2.37905e-06 0.00317317 -2.03827e-16)
(-1.96087e-05 0.00317027 -2.03655e-16)
(-0.00222584 0.000893368 3.04094e-16)
(1.6878e-05 0.00317467 -2.04088e-16)
(-2.56764e-05 0.00317148 7.93013e-19)
(1.34328e-06 0.00317084 2.00589e-19)
(2.09499e-05 0.00317159 0)
(-5.55742e-07 0.00317704 0)
(2.12368e-05 0.00317137 0)
(2.23262e-06 0.00317309 0)
(-0.00222964 0.000847094 -5.05803e-17)
(-2.31201e-05 0.00317035 0)
(-1.54844e-06 0.00317233 0)
(0.00235841 0.00109467 1.57509e-16)
(1.41616e-06 0.00317324 0)
(-0.000127578 0.00330406 0)
(-6.1296e-07 0.00317684 4.08006e-16)
(1.1332e-06 0.00317087 0)
(0.0021698 0.000800135 -4.81143e-17)
(0.00218384 0.000847846 0)
(0.00198376 0.000951532 1.05923e-16)
(0.00214474 0.000778731 -2.06198e-16)
(2.47751e-06 0.00317202 -4.0722e-16)
(-0.0020247 0.000873103 0)
(1.00384e-06 0.00317329 -1.99179e-19)
(-0.00221449 0.000894958 -9.91576e-17)
(2.35516e-05 0.00317177 0)
(0.00108464 0.00123979 0)
(4.01144e-07 0.00317243 -4.02028e-19)
(2.10321e-06 0.00318016 -1.26933e-17)
(0.000814481 0.00195518 -7.05262e-18)
(2.09704e-05 0.00316988 0)
(2.5333e-06 0.00317231 0)
(-0.00222434 0.000873722 0)
(-1.04913e-06 0.00317365 4.06407e-16)
(-9.29414e-07 0.00317445 0)
(0.0021792 0.000836051 3.8925e-21)
(0.000618799 0.0018297 0)
(-1.07299e-07 0.00317265 4.14441e-19)
(-2.65268e-07 0.00317416 -2.04144e-16)
(1.59486e-06 0.00317191 -2.03124e-16)
(1.30127e-06 0.00317107 -4.02702e-19)
(5.84831e-07 0.00317142 0)
(1.21599e-06 0.00317571 1.47213e-20)
(0.00222566 0.000797342 0)
(-0.00223192 0.000872792 0)
(2.1551e-05 0.00317079 2.04209e-16)