/*--------------------------------*- C++ -*----------------------------------*\
  =========                 |
  \\      /  F ield         | OpenFOAM: The Open Source CFD Toolbox
   \\    /   O peration     | Website:  https://openfoam.org
    \\  /    A nd           | Version:  12
     \\/     M anipulation  |
\*---------------------------------------------------------------------------*/
FoamFile
{
    format      ascii;
    class       surfaceScalarField;
    location    "0.11";
    object      phi;
}
// * * * * * * * * * * * * * * * * * * * * * * * * * * * * * * * * * * * * * //

dimensions      [0 3 -1 0 0 0 0];

internalField   nonuniform List<scalar> 
6438
(
-1.798e-08
2.232e-06
-2.21402e-06
-1.97584e-08
2.5928e-06
-2.57304e-06
-2.43012e-06
-4.09954e-07
2.84007e-06
2.30601e-06
-2.52967e-06
2.23665e-07
3.54664e-06
-2.76967e-06
-7.76965e-07
8.09932e-07
2.73671e-06
-2.75843e-06
3.28311e-07
-2.39609e-06
2.37634e-06
2.58612e-06
-3.08955e-06
5.03429e-07
2.40683e-06
-2.82054e-06
4.13715e-07
-2.32864e-06
2.82792e-06
-4.99288e-07
5.59857e-07
-2.55412e-06
1.99426e-06
-2.87677e-06
5.4814e-07
2.21208e-06
1.01603e-06
-3.22812e-06
2.07726e-06
-2.09524e-06
-1.17018e-07
2.43407e-06
-2.31705e-06
-3.06721e-06
2.97345e-06
9.37588e-08
-2.32302e-06
2.81792e-06
-4.94899e-07
-2.87334e-06
5.50317e-07
9.12787e-07
1.93286e-06
-2.84564e-06
-6.65929e-07
-4.36073e-07
1.102e-06
-1.42383e-07
2.5509e-06
-2.40851e-06
-2.36379e-06
-3.83413e-07
2.74721e-06
-2.89102e-06
1.26987e-06
1.62115e-06
-2.51338e-06
2.371e-06
-2.23221e-06
2.7141e-06
-4.81883e-07
-2.72317e-06
3.59382e-07
2.58622e-06
-2.02636e-06
-2.34831e-06
-4.36567e-07
2.78488e-06
-2.83674e-06
6.0453e-07
2.18005e-06
-2.73256e-06
5.52511e-07
1.22811e-08
-2.66358e-06
2.6513e-06
2.60556e-06
-2.61922e-06
1.36664e-08
-2.58136e-06
4.35408e-07
2.14595e-06
-3.48903e-06
5.63784e-07
2.92525e-06
2.45206e-06
-2.43978e-06
2.47255e-06
-1.66542e-07
1.60503e-06
2.24652e-06
-3.85155e-06
-7.88586e-07
3.00067e-06
-2.30221e-06
2.52888e-06
-2.26676e-07
-2.66865e-06
2.64351e-06
2.5136e-08
-1.1107e-06
2.02349e-06
2.38612e-06
2.07075e-08
-2.86759e-06
2.80964e-06
5.79514e-08
2.57314e-06
-3.93086e-07
-1.92248e-06
1.80546e-06
-3.33216e-06
5.62488e-07
2.53116e-06
2.44592e-07
-2.77575e-06
-1.97213e-06
-6.09231e-07
-3.59856e-07
-2.36948e-06
2.68883e-06
-3.19357e-07
-1.77087e-06
2.55129e-06
-7.80426e-07
2.55788e-06
-2.55788e-06
8.0227e-07
1.94028e-06
2.55445e-07
-2.19573e-06
1.13828e-06
5.51117e-07
-1.6894e-06
2.16744e-06
4.50254e-07
-2.61769e-06
2.09146e-06
-8.21594e-07
-1.21292e-06
-2.11924e-06
-2.49423e-08
2.25453e-06
-2.22959e-06
-2.78185e-06
2.78185e-06
-2.87984e-06
2.90801e-06
-2.81678e-08
1.1544e-07
2.14409e-06
-2.25953e-06
8.17338e-09
-2.62589e-06
2.61771e-06
2.43629e-06
-2.42812e-06
-2.65606e-06
3.07748e-07
-2.6633e-06
-2.04294e-07
-2.28941e-06
2.51471e-06
-2.25293e-07
2.53286e-07
2.19262e-06
-2.4459e-06
-2.69247e-06
2.58971e-06
1.02757e-07
2.6253e-06
-2.6253e-06
2.44161e-06
1.44513e-07
-1.60347e-06
-1.21707e-06
2.28516e-06
4.8265e-07
-2.76781e-06
-2.24323e-06
-4.25424e-07
1.99193e-06
1.54089e-06
-3.53282e-06
-3.08692e-06
1.97622e-06
-1.97255e-06
-1.11437e-06
2.71249e-06
-4.27326e-07
1.61958e-06
-4.81297e-07
2.20154e-06
2.4901e-07
-2.45055e-06
-2.71371e-06
-1.66135e-07
-3.86677e-07
-6.60081e-07
-2.12177e-06
2.94122e-06
-2.94122e-06
-1.94698e-06
-7.45495e-07
-1.77051e-07
-3.31198e-06
-2.53762e-06
2.52792e-06
9.69404e-09
9.13751e-08
-2.57245e-06
2.48108e-06
-2.82876e-07
2.48441e-06
2.54105e-06
6.45098e-08
-2.65434e-06
-4.12865e-07
-2.67895e-06
2.74585e-06
-6.69001e-08
2.80136e-06
-1.56716e-06
-1.2342e-06
2.51084e-06
-2.41947e-06
5.20959e-08
2.81917e-06
-1.43462e-06
-1.38455e-06
1.60204e-06
1.19933e-06
2.58428e-06
-2.58428e-06
-1.98268e-06
2.84273e-06
-8.6005e-07
-2.49036e-06
1.20882e-07
-3.4124e-07
-2.0161e-06
2.35734e-06
-2.3349e-06
9.16749e-08
-2.50128e-06
5.18596e-07
2.15661e-06
4.72675e-07
-2.62928e-06
-1.55526e-07
2.31213e-06
-2.25371e-06
2.60354e-06
-3.49829e-07
-2.39295e-06
9.07394e-08
1.65701e-06
1.16215e-06
2.4954e-06
-5.0114e-07
1.07311e-07
2.45057e-06
-2.15319e-06
-1.81709e-07
2.24992e-06
4.79833e-07
-2.72976e-06
-1.24467e-06
-1.07374e-06
2.31841e-06
1.63872e-06
-2.09361e-07
-1.42936e-06
-2.66358e-06
5.4199e-07
2.66586e-06
-3.20785e-06
-1.23786e-06
5.71931e-07
2.66241e-06
5.16903e-08
2.89175e-06
-1.49612e-06
-1.39563e-06
9.69477e-07
1.92227e-06
2.69057e-06
-4.40649e-07
3.28787e-06
-1.68284e-06
-2.43575e-06
8.24887e-09
2.4275e-06
-3.48498e-06
3.53436e-07
3.13155e-06
-4.05221e-08
-2.42006e-06
2.46058e-06
2.66027e-06
1.4937e-07
-2.05332e-06
2.02838e-06
-2.4492e-06
2.49812e-06
-4.89177e-08
2.48045e-06
-2.52098e-06
2.56009e-06
-2.56009e-06
2.51887e-06
7.39222e-08
2.52413e-06
-5.83848e-07
2.4897e-06
-2.37426e-06
-2.19356e-06
1.85232e-06
2.29795e-08
2.41795e-06
-2.44093e-06
2.84914e-06
-1.9947e-06
-8.54448e-07
-2.62589e-06
-3.82768e-08
2.97819e-08
-2.42588e-06
-2.42916e-06
1.39742e-07
2.74955e-08
2.42456e-06
2.34641e-06
-2.09312e-06
-2.41959e-06
1.6588e-07
2.45401e-06
-6.78903e-08
-8.84913e-08
2.13668e-06
-2.04819e-06
1.68434e-06
1.1648e-06
-2.51529e-06
5.41725e-07
1.97356e-06
2.56459e-06
-1.32984e-08
-3.3921e-06
3.06767e-07
3.08534e-06
-3.47301e-08
-2.40742e-06
2.44215e-06
1.59981e-06
3.8911e-08
1.53858e-07
2.41073e-06
2.38531e-06
2.00917e-07
2.46622e-06
-2.50095e-06
-2.56943e-06
-8.49126e-08
2.62249e-06
-2.82014e-06
1.97653e-07
-2.34284e-06
-9.29122e-08
-2.85223e-06
1.23643e-06
1.6158e-06
-8.90538e-10
2.46501e-06
8.58921e-08
-2.32158e-06
2.69981e-06
-3.78235e-07
-2.55422e-06
2.20253e-06
3.51686e-07
-3.46101e-07
8.93913e-07
-5.47812e-07
-8.01935e-07
-2.03481e-06
-2.57245e-06
-2.04408e-08
2.45673e-06
7.5596e-07
2.08677e-06
-4.16023e-08
-2.50132e-06
-1.20646e-08
-5.34367e-08
-2.73363e-06
2.30902e-06
4.24608e-07
-1.60075e-07
2.03961e-06
4.01992e-07
3.99699e-06
-1.75047e-06
-8.44719e-07
-2.02862e-06
2.50638e-06
3.46694e-08
-2.14954e-06
9.0487e-07
-9.68295e-07
-1.52453e-06
2.49283e-06
-8.62731e-07
-2.01404e-06
-1.40102e-06
3.39295e-06
-2.58682e-06
8.54949e-08
-2.44172e-06
2.451e-06
-9.28066e-09
-2.01425e-06
1.92576e-06
-2.96039e-08
-2.39289e-06
2.42249e-06
-2.632e-06
4.51845e-08
2.1936e-06
-2.61004e-06
4.16445e-07
2.44472e-06
-2.47433e-06
2.18386e-06
-8.26067e-07
-1.35779e-06
-3.30503e-06
1.17262e-06
2.13242e-06
2.23876e-06
2.1525e-07
1.84833e-06
1.12512e-06
5.3957e-07
2.40165e-06
-6.43327e-07
-2.2979e-06
-2.66528e-06
2.64102e-06
2.42629e-08
-2.65776e-06
-7.51957e-09
-2.64479e-06
-1.29652e-08
9.01601e-09
6.88813e-07
-3.84804e-06
3.15922e-06
-2.85465e-06
3.39664e-06
2.25441e-06
-2.23143e-06
2.41019e-06
1.00649e-07
1.96541e-07
1.98732e-06
-2.42006e-06
-2.19406e-06
2.18408e-06
2.71357e-07
-2.45544e-06
-1.23583e-08
-5.22536e-07
3.83973e-06
-3.31719e-06
3.64162e-06
-2.62559e-06
-1.10615e-06
1.65726e-06
-7.02061e-07
-2.15017e-06
-1.90822e-06
-1.39681e-06
-2.41889e-06
-1.50544e-07
-2.43687e-06
2.43645e-06
4.21025e-10
-3.83577e-07
2.28583e-06
-1.90226e-06
-2.61826e-06
2.63655e-06
-1.82816e-08
-2.59073e-06
-2.75377e-08
-3.32763e-06
2.09149e-07
3.11848e-06
-2.32321e-06
-1.50727e-07
2.47394e-06
2.60928e-06
2.72641e-08
-4.63443e-07
-2.84979e-06
1.04176e-06
1.80803e-06
1.5806e-08
-1.508e-06
-1.34179e-06
-3.55118e-08
-2.68181e-08
-2.37861e-06
2.40543e-06
-2.44502e-06
1.21804e-07
2.20975e-06
2.9663e-07
2.54638e-06
-2.43907e-06
2.42085e-06
-2.44767e-06
2.4113e-06
6.91509e-08
1.18637e-06
2.45526e-06
2.50683e-06
-4.67215e-07
-1.97762e-07
-3.28722e-06
-1.42225e-07
1.98689e-06
-1.84466e-06
-2.57839e-06
-1.23323e-08
-2.57794e-06
-4.51998e-10
2.59807e-06
-2.57932e-06
-1.87496e-08
2.57051e-06
2.75673e-08
-2.40742e-06
5.94819e-07
-8.1626e-07
2.21441e-07
-2.91189e-06
1.70626e-06
1.20563e-06
1.30146e-06
-2.61022e-06
1.30876e-06
-2.27873e-06
-2.11633e-07
-2.42867e-06
2.41658e-06
1.20817e-08
-2.52491e-06
2.4351e-06
8.98126e-08
-2.0173e-07
2.58407e-06
-2.38234e-06
-2.50685e-06
6.18341e-08
-2.78407e-06
3.47288e-06
-2.56631e-07
-2.25866e-06
-2.61735e-06
2.41562e-06
-2.05056e-06
-1.88072e-07
2.23863e-06
-1.91693e-06
2.55422e-06
1.62882e-08
-1.7457e-06
-4.6797e-07
5.18855e-07
-5.08845e-08
-2.37236e-08
9.43747e-08
-3.32131e-06
3.22694e-06
-1.85796e-06
-9.00463e-07
-2.58843e-06
2.53666e-06
5.17706e-08
-2.5489e-06
-3.95331e-08
-9.15371e-07
5.6927e-07
2.4068e-06
5.94241e-08
2.56646e-06
-4.2237e-07
2.54717e-06
-2.54485e-06
-2.31652e-09
-6.69383e-09
-2.36015e-06
2.36684e-06
2.66812e-06
-1.91216e-06
-3.21565e-08
2.63898e-06
1.49417e-06
-4.13315e-06
2.6142e-06
-2.6142e-06
4.06971e-07
2.37488e-06
-9.22828e-07
-1.63505e-06
-2.08553e-06
2.51414e-06
-4.28617e-07
-2.75471e-07
-2.24944e-06
2.40867e-06
-2.41537e-06
-2.30607e-06
3.76821e-08
2.26839e-06
4.42861e-07
-2.33841e-06
1.89555e-06
-2.42141e-06
2.39585e-06
2.55667e-08
1.54837e-06
1.11975e-06
-7.54842e-08
-3.92486e-07
-1.45767e-06
-1.45422e-06
-5.62261e-07
-2.58565e-06
2.64077e-07
-2.39289e-06
2.16844e-06
4.54047e-07
-2.01021e-06
-2.26094e-06
2.10377e-07
-2.30703e-06
1.33873e-06
2.61774e-06
-2.12776e-06
-4.89986e-07
4.46353e-07
2.10003e-06
-1.84745e-06
-8.75725e-07
-2.55928e-06
2.55928e-06
2.56192e-06
-2.46429e-06
-9.76374e-08
1.46715e-07
-2.42544e-06
-2.04973e-06
2.31752e-06
-2.67794e-07
-8.10668e-07
3.74595e-07
2.38595e-06
-2.3977e-06
1.17569e-08
2.50981e-06
2.68504e-08
2.53365e-06
2.82767e-08
3.82535e-06
-2.44112e-06
-6.57345e-08
-2.14218e-06
1.7586e-06
2.40303e-06
4.16863e-08
2.52655e-06
-2.51306e-06
-1.34895e-08
-2.23485e-08
-3.50384e-08
2.64848e-07
-2.16695e-06
1.9021e-06
-7.5016e-08
-3.31709e-06
7.93514e-07
1.76431e-07
-2.22616e-06
-2.41544e-06
2.37843e-06
3.70095e-08
2.40911e-06
-2.15517e-07
-1.12318e-06
-1.49604e-06
-3.37718e-06
2.4999e-07
-1.35614e-06
-4.0157e-07
1.14492e-08
2.48149e-06
-2.21013e-06
-2.37861e-06
-2.3822e-06
6.22578e-08
2.31995e-06
3.36211e-06
4.7762e-07
1.93946e-06
9.68543e-07
2.34605e-06
-1.04458e-06
2.44807e-06
-1.39047e-07
5.62569e-06
-4.13152e-06
-3.84804e-06
-1.23411e-06
-1.32011e-06
-3.15256e-08
2.61207e-06
-2.44745e-06
-1.64615e-07
2.47736e-06
5.62842e-08
2.86446e-07
-2.37197e-06
-1.75995e-06
2.0248e-06
2.39969e-06
2.11575e-08
1.88036e-06
8.3213e-07
2.51805e-06
9.402e-08
2.51647e-06
-2.48049e-06
-3.59796e-08
-1.1355e-06
-1.59707e-06
-1.13649e-07
2.31618e-06
4.29824e-08
-2.66829e-06
2.08637e-06
-1.64351e-06
-3.56994e-08
5.21859e-08
2.03817e-06
-2.21095e-06
1.72777e-07
3.73295e-07
2.14085e-06
3.4123e-06
-3.31792e-06
1.18784e-06
1.50099e-06
-2.40868e-06
2.38119e-06
2.74888e-08
-5.51683e-08
-1.40224e-06
7.70158e-07
6.32078e-07
-2.55632e-08
2.61619e-06
-2.61619e-06
2.9634e-06
-1.72004e-06
-1.24336e-06
-2.1622e-06
-3.67474e-07
1.82569e-06
8.64878e-07
2.50447e-06
1.35834e-08
-2.36015e-06
2.34155e-06
1.50969e-08
-2.35665e-06
1.91568e-06
2.66829e-06
-2.6513e-06
6.70169e-08
3.11454e-06
-2.76111e-06
2.40991e-06
-2.56251e-06
2.39584e-06
-5.42896e-08
2.16213e-06
-2.34097e-06
2.32896e-06
1.20093e-08
1.0801e-07
1.87971e-06
-1.98772e-06
-2.12798e-06
1.75873e-06
-1.58912e-07
2.22412e-06
3.04769e-07
-2.18701e-08
-2.06055e-06
-3.59038e-07
-3.08899e-06
1.95349e-06
5.03036e-09
-2.34787e-06
-2.49878e-06
-1.18573e-07
3.34446e-06
-1.80357e-06
2.39738e-08
-4.33276e-07
2.66019e-06
-2.22691e-06
-1.13626e-06
-2.65978e-07
2.33127e-06
-2.35588e-06
2.46039e-08
-2.40991e-06
2.39314e-06
1.0381e-06
1.48053e-06
-2.51864e-06
2.50357e-06
-4.65403e-07
2.06494e-07
2.22758e-06
2.45776e-06
2.42047e-07
2.68189e-07
3.2663e-07
-2.61771e-06
5.76197e-08
-2.07612e-06
2.36257e-06
-1.20347e-06
1.45346e-06
2.21835e-07
-2.1815e-06
1.95967e-06
-1.8377e-08
4.35831e-08
-2.17481e-06
-2.47717e-06
2.43132e-06
4.58466e-08
-2.37412e-06
2.46362e-07
1.55252e-06
1.41089e-06
-1.33608e-06
2.73814e-06
-1.40205e-06
2.74696e-06
-2.56411e-06
-1.8285e-07
6.96772e-08
1.68905e-06
-2.35716e-06
-2.50392e-08
2.39243e-06
3.4156e-09
1.18073e-06
-4.10576e-07
3.04501e-06
-2.73824e-06
2.17659e-06
3.3812e-07
1.36619e-07
-2.42867e-06
3.68115e-07
3.63723e-08
-2.11249e-06
2.7113e-06
-2.1927e-06
2.21024e-06
-1.34402e-07
-2.10462e-06
2.23903e-06
-2.38119e-06
2.48049e-06
-2.94882e-08
-3.60721e-06
2.90014e-07
-1.57509e-08
2.33587e-06
4.53212e-08
-2.20307e-06
-2.42089e-06
2.41116e-06
9.73458e-09
2.90185e-06
-1.68795e-06
-1.21391e-06
-2.03034e-06
-1.829e-07
2.21323e-06
-5.27692e-09
-2.39019e-06
5.15067e-08
-2.59727e-07
2.55635e-06
-2.29662e-06
-2.34333e-06
2.35508e-06
-3.40265e-06
-4.95811e-07
-3.28995e-06
3.20721e-06
8.27376e-08
1.8755e-06
9.52419e-07
2.19526e-06
1.97795e-07
-2.39305e-06
2.33425e-06
-9.54936e-08
1.87995e-06
9.3797e-07
-1.66801e-06
5.31754e-07
-2.36141e-06
2.04962e-06
-2.3325e-06
-3.16898e-06
3.15755e-06
1.14304e-08
2.85946e-06
-2.29567e-06
2.33603e-06
-7.07423e-09
1.43943e-07
-2.17878e-06
2.03484e-06
-3.522e-08
-3.13376e-06
2.83032e-06
-2.83032e-06
-1.28979e-06
2.42864e-06
-1.13885e-06
-2.33694e-06
2.33694e-06
2.39094e-06
-2.11333e-06
-2.77611e-07
2.21778e-06
5.28075e-07
2.4902e-06
-2.04384e-06
2.46404e-06
-2.75991e-08
-1.92611e-06
-3.08779e-07
2.23489e-06
-3.13056e-06
3.14135e-06
-1.07903e-08
2.89361e-06
-1.74249e-06
-1.15111e-06
4.21823e-07
2.06837e-06
-3.16333e-06
3.14741e-06
1.59107e-08
-9.33157e-10
-2.3236e-08
3.12154e-06
-3.09831e-06
-3.15155e-06
3.15155e-06
-3.74678e-08
2.36874e-06
3.38305e-06
-3.15301e-06
-2.3004e-07
-3.16538e-06
3.14214e-06
3.1624e-06
-3.1464e-06
-1.6001e-08
-2.30381e-06
-5.20648e-08
2.69592e-06
-3.622e-08
3.14165e-06
-3.10543e-06
3.1426e-06
-3.14855e-06
5.95279e-09
-2.37652e-06
3.12613e-06
-4.58923e-09
-2.41831e-06
2.39687e-06
2.14403e-08
-3.12557e-06
3.13698e-06
-1.14085e-08
2.39412e-06
-2.33186e-06
-3.157e-06
3.12078e-06
2.42204e-06
-7.71045e-07
1.15285e-06
1.50734e-06
-1.74898e-06
-1.34001e-06
-3.14607e-06
3.14607e-06
-3.16049e-06
-4.88264e-09
2.92553e-06
-5.36901e-07
-2.38863e-06
-2.05953e-06
1.39945e-06
7.88035e-08
3.13122e-06
-3.14099e-06
9.77037e-09
2.30451e-06
-2.30346e-06
-1.04769e-09
3.22877e-06
-3.14479e-06
-8.39796e-08
3.11474e-06
1.64778e-08
3.10904e-06
3.26165e-08
-6.53687e-09
-2.3304e-06
-2.88041e-06
1.58544e-06
1.29497e-06
-2.3271e-06
2.3422e-06
3.12474e-06
-9.99198e-09
3.27674e-07
2.12039e-06
1.68074e-06
-6.42637e-07
-3.15253e-06
-4.47441e-09
2.5706e-06
1.52467e-06
-2.5984e-06
-3.97043e-07
-3.21016e-06
2.34728e-06
-2.36177e-06
1.449e-08
-1.08967e-07
-3.18098e-06
2.44398e-06
-2.73954e-08
2.71553e-06
-1.85682e-06
-8.58716e-07
-2.35174e-06
3.12956e-06
-3.12956e-06
2.24172e-06
3.11494e-08
-2.27287e-06
2.41158e-06
-3.13617e-06
3.13202e-06
4.15086e-09
3.11376e-06
-3.14397e-06
3.02162e-08
1.97788e-06
-2.62121e-06
-8.44779e-09
-3.11407e-06
3.12252e-06
3.10686e-06
-3.11531e-06
-1.03273e-07
3.31048e-06
-2.48365e-06
2.6928e-06
-2.81849e-06
1.95576e-06
-4.95085e-08
3.20706e-06
2.69275e-07
1.38799e-06
2.93285e-08
2.8962e-06
-8.66627e-09
2.50603e-06
-2.49737e-06
-2.15224e-08
-3.1436e-06
-1.97241e-08
2.58264e-06
-2.59574e-07
-2.32307e-06
-3.12274e-06
3.12274e-06
1.83073e-06
-1.57529e-06
-3.14862e-06
3.1403e-06
8.31322e-09
2.40521e-06
-2.40521e-06
2.34014e-06
-3.56313e-08
3.12702e-06
-3.13205e-06
5.03265e-09
-3.01964e-06
8.25578e-07
2.23581e-09
-2.32297e-06
2.32074e-06
2.51914e-06
-2.10213e-08
3.13339e-06
2.90036e-08
1.9012e-06
3.24097e-07
-2.22529e-06
3.14314e-06
-1.70015e-08
2.44367e-06
-2.44367e-06
3.1232e-06
-3.11225e-06
-1.0948e-08
-2.38942e-06
2.37093e-06
1.8489e-08
3.14696e-06
-3.13747e-06
-9.49579e-09
-3.12799e-06
3.12799e-06
4.68315e-07
2.19139e-06
7.4149e-08
-2.26554e-06
-3.14887e-06
3.14062e-06
8.25334e-09
-1.18181e-08
-2.35889e-06
2.34514e-06
2.14007e-09
2.92609e-06
-5.50494e-07
-2.37559e-06
2.02226e-06
3.11526e-06
-3.12389e-06
8.63706e-09
2.40895e-06
2.57091e-06
3.62339e-08
2.20548e-06
3.1945e-06
-6.11074e-08
3.10488e-06
1.03739e-08
2.28593e-06
-2.28593e-06
-1.20347e-06
3.15928e-06
-3.13436e-06
-9.60716e-09
3.13289e-06
-3.12113e-06
-1.17573e-08
6.16608e-08
-3.19248e-06
3.13082e-06
3.289e-07
-3.15922e-06
-3.14317e-06
3.13771e-06
5.45899e-09
2.26943e-06
-2.268e-06
-1.43013e-09
2.39094e-06
-2.11005e-06
2.11005e-06
3.11125e-06
-6.36519e-09
-2.33245e-06
-2.17878e-06
2.19526e-06
2.42135e-06
-2.55011e-08
-7.15413e-09
2.48179e-07
-3.08989e-06
3.13227e-06
-3.13337e-06
1.10549e-09
7.39996e-08
2.19543e-06
7.27252e-08
2.50991e-06
2.35733e-06
-1.71955e-08
-3.13629e-06
3.13255e-06
3.74344e-09
3.10856e-06
-3.11747e-06
8.91506e-09
-3.13326e-06
-1.53539e-08
3.12489e-06
-3.11659e-06
-8.30609e-09
2.35999e-06
4.5228e-08
3.12665e-06
1.36545e-08
-4.02507e-09
3.11981e-06
1.27392e-08
-4.85054e-10
-2.31213e-06
-3.16733e-06
3.35677e-08
-2.344e-06
2.344e-06
3.05277e-08
2.89556e-06
-2.38208e-06
4.55969e-07
1.66054e-08
3.126e-06
1.3092e-07
-2.25665e-06
2.12573e-06
2.20829e-08
3.12947e-06
2.986e-06
-3.25628e-06
2.35896e-06
8.47069e-08
3.10686e-06
-2.38095e-08
2.2152e-06
-2.27851e-06
1.05106e-08
2.24598e-06
-3.44784e-07
-3.11464e-06
3.11464e-06
-3.13125e-06
-1.76254e-08
2.11333e-06
-2.18917e-06
7.58414e-08
-3.12947e-06
2.30555e-06
-2.30332e-06
3.1251e-06
1.55178e-08
-3.12647e-06
-2.7829e-06
1.93818e-06
-3.14004e-06
3.13477e-06
5.27228e-09
2.13267e-06
2.01581e-07
2.32297e-06
1.39671e-08
-3.10444e-06
3.12591e-06
-2.14759e-08
-2.36077e-06
2.34002e-06
2.07439e-08
-3.11436e-06
9.92485e-09
2.3493e-06
-4.15545e-09
1.28722e-07
-2.42735e-06
2.29863e-06
3.11373e-06
-3.12763e-06
1.38987e-08
2.53299e-06
-2.65156e-06
3.11336e-06
-3.11301e-06
-3.47135e-10
-1.98742e-06
1.98742e-06
-2.44946e-06
2.44946e-06
-3.10975e-06
-4.61465e-09
-1.45346e-06
1.72274e-06
-3.11875e-06
3.11414e-06
4.60459e-09
2.45773e-08
3.12149e-06
1.94457e-06
-1.72274e-06
-1.94457e-06
2.05258e-06
2.06246e-06
-2.37124e-06
2.85311e-06
-1.68892e-06
-1.16419e-06
-3.12984e-06
-1.33242e-08
-4.49648e-07
-2.05258e-06
2.50223e-06
3.12588e-06
1.18309e-08
-2.36898e-06
2.19338e-06
3.13497e-06
-3.12861e-06
-6.36373e-09
-3.11642e-06
-2.34773e-06
2.3604e-06
-7.44668e-08
-8.40973e-09
3.13315e-06
3.11981e-06
-2.32074e-06
-3.1943e-06
-1.87593e-06
2.39305e-06
-5.17121e-07
-3.10275e-06
-1.1317e-08
3.11594e-06
3.86422e-09
1.81684e-06
-1.85705e-06
4.02035e-08
3.61305e-09
2.18917e-06
-2.27754e-06
8.83687e-08
1.44343e-06
1.45842e-06
-3.12845e-06
-1.15932e-08
-2.37094e-06
3.10224e-06
-3.09961e-06
-2.62397e-09
3.12465e-06
1.01189e-08
-3.13379e-06
3.13039e-06
3.39751e-09
2.39649e-06
2.35999e-06
-3.11024e-06
3.10335e-06
6.89104e-09
3.13218e-06
-3.13077e-06
-1.40758e-09
-2.33024e-06
2.35896e-06
3.10877e-06
-3.10877e-06
1.24954e-08
3.13492e-06
-1.9627e-06
-4.19381e-07
3.1152e-06
-1.475e-09
-3.99126e-07
2.12712e-06
-1.72799e-06
3.10727e-06
-3.10458e-06
-2.68613e-09
9.5628e-09
3.12e-06
3.10158e-06
-3.10439e-06
2.80806e-09
-3.13797e-06
-3.1266e-06
-1.88427e-06
2.74442e-09
3.12927e-06
-3.40822e-09
-3.11855e-06
3.12196e-06
-3.10896e-06
3.10213e-06
6.82857e-09
-3.12833e-06
-5.46316e-09
-2.36781e-06
-2.28777e-06
9.25402e-09
3.12508e-06
5.31297e-09
-3.10612e-06
3.10481e-06
1.3155e-09
-3.10824e-06
1.17771e-08
3.09646e-06
3.12741e-06
7.56662e-09
-3.11769e-06
-1.09171e-08
-2.2752e-06
-1.0725e-08
3.12588e-06
-3.12779e-06
1.90289e-09
3.10768e-06
-3.11109e-06
-3.11375e-06
3.10944e-06
4.30691e-09
3.10596e-06
-3.10345e-06
-2.51437e-09
2.34208e-06
1.91794e-09
3.12689e-06
5.29328e-09
-3.12249e-06
-8.28377e-09
-3.1339e-06
2.3604e-06
-3.10765e-06
3.10142e-06
6.2333e-09
2.06293e-06
-2.19733e-06
-3.09888e-06
3.11055e-06
-1.16707e-08
3.10854e-06
-3.11321e-06
4.666e-09
-7.71367e-09
-3.12528e-06
-3.04266e-09
-8.16202e-09
-2.75992e-06
1.95798e-06
-5.36903e-09
3.10768e-06
-5.1945e-09
-3.36889e-09
-3.12794e-06
2.65686e-09
1.19807e-06
2.62686e-06
-3.82493e-06
-6.47182e-07
3.12586e-06
2.54516e-11
-3.12e-06
5.83428e-09
3.11691e-06
-3.12182e-06
-5.96323e-09
-2.34986e-06
-3.13106e-06
3.1238e-09
1.10786e-08
3.11594e-06
-4.65453e-10
1.4903e-08
-3.07817e-06
3.06327e-06
3.13022e-06
-3.12863e-06
-1.5848e-09
-2.39175e-06
4.29049e-07
3.12419e-06
-3.11873e-06
-5.46406e-09
-3.12622e-06
-2.31853e-06
-1.22404e-07
3.10532e-06
-3.10285e-06
-2.4643e-09
1.64034e-08
-3.08109e-06
3.06469e-06
-3.12942e-06
3.12358e-06
5.84759e-09
-2.36636e-06
2.34643e-06
1.99241e-08
2.70229e-09
-3.12937e-06
-1.69595e-09
-2.38121e-06
4.94126e-07
1.88708e-06
-3.12531e-06
-4.10817e-09
3.12916e-06
1.06338e-09
-3.12402e-06
-4.61824e-09
-1.25711e-08
-3.12959e-06
2.23508e-10
-2.25105e-06
-2.59627e-07
2.51068e-06
1.79983e-06
1.31918e-08
-3.11691e-06
2.34744e-06
-7.42203e-09
-3.10519e-06
3.10519e-06
-6.01635e-09
3.12767e-06
1.48619e-09
-2.48766e-09
4.91446e-09
5.06594e-09
3.12885e-06
-1.17615e-09
1.8428e-09
3.12803e-06
-3.12805e-06
2.54657e-11
2.25763e-06
-2.25763e-06
-3.12158e-06
3.11484e-06
6.74375e-09
3.11041e-06
-3.10724e-06
-3.17608e-09
-4.42486e-09
3.1269e-06
1.94966e-09
3.12703e-06
9.94276e-10
-1.15762e-09
3.12724e-06
3.12431e-06
-3.12602e-06
1.70691e-09
-3.15447e-06
-3.1143e-06
-7.2798e-09
2.40796e-06
-2.95284e-08
3.12152e-06
2.78825e-09
2.60789e-08
3.12388e-06
-3.12044e-06
-3.44197e-09
-2.23158e-06
2.23158e-06
1.76579e-08
3.11033e-06
-3.10463e-06
3.10965e-06
-5.01388e-09
3.12322e-06
6.61642e-10
2.08199e-08
2.33651e-06
3.11953e-06
-3.11831e-06
-1.21487e-09
-3.09486e-06
-9.77032e-09
3.11086e-06
-3.1134e-06
2.54069e-09
3.1175e-06
2.0327e-09
3.12324e-06
3.79251e-09
-3.09007e-08
-3.08765e-06
-4.55648e-09
-2.75312e-07
-2.09666e-06
3.10585e-06
-3.10886e-06
3.0167e-09
9.25609e-08
2.16507e-06
3.11914e-06
-3.11619e-06
-2.95634e-09
-2.77567e-09
-5.40842e-08
-2.59146e-06
2.64555e-06
-2.25918e-06
2.28513e-06
-2.59474e-08
-3.09121e-06
3.09223e-06
-1.0118e-09
3.11551e-06
3.63076e-09
-3.10624e-06
-1.94026e-06
3.13833e-06
3.11677e-06
-3.11231e-06
-4.46007e-09
-3.11976e-06
3.11983e-06
-7.32237e-11
3.11092e-06
-3.10811e-06
-2.80854e-09
-3.03134e-07
-2.66843e-06
2.97156e-06
3.11354e-06
3.2354e-09
-3.09364e-06
2.42777e-09
3.11723e-06
-3.11325e-06
-3.98377e-09
2.34208e-06
-2.39815e-06
2.39815e-06
3.11606e-06
-3.11015e-06
-5.9073e-09
-6.06775e-09
3.11732e-06
-4.9181e-09
-2.3452e-06
3.11161e-06
4.44667e-09
-3.11946e-06
-5.85699e-09
-3.08883e-06
3.0905e-06
-1.67011e-09
3.11981e-06
1.70646e-09
5.31021e-08
3.08825e-06
-6.27167e-10
3.11697e-06
7.92472e-09
2.33535e-06
1.20892e-08
3.74138e-10
-3.09194e-06
3.11032e-09
2.37822e-07
8.72633e-09
1.00321e-07
3.10803e-06
-3.11093e-06
2.90584e-09
-3.08555e-06
3.08917e-06
-3.6192e-09
5.62465e-08
-2.339e-06
2.28275e-06
4.17983e-07
-2.43549e-06
2.0175e-06
8.89184e-07
2.20936e-06
-2.20936e-06
3.10581e-06
-3.10581e-06
-2.55094e-06
1.42047e-09
-3.11166e-06
2.38344e-06
3.11618e-06
7.04432e-09
-5.86572e-07
-1.09314e-06
1.67971e-06
-3.09011e-06
4.5594e-09
-3.09168e-06
-1.008e-07
1.32121e-06
-2.17932e-06
8.58112e-07
-2.13693e-09
2.12365e-08
3.08932e-06
6.73498e-09
2.34256e-06
-3.1207e-06
6.58828e-09
3.10805e-06
1.98271e-06
-2.4194e-06
4.36691e-07
2.01706e-06
-6.95843e-07
-3.90483e-09
-3.10505e-06
3.12122e-06
-3.09998e-06
-3.11216e-06
-3.08148e-06
3.07854e-06
2.93956e-09
7.2184e-10
3.11342e-06
3.10257e-06
3.24301e-09
2.83507e-06
-1.88248e-06
-9.52592e-07
-1.00174e-08
2.36898e-06
3.11254e-06
4.96037e-09
2.83441e-06
-3.13755e-06
2.12046e-08
3.08921e-06
-3.6831e-09
-3.10397e-06
-3.08514e-06
3.66582e-09
-2.2653e-06
6.11228e-09
2.38118e-06
-1.90949e-06
-4.71684e-07
3.097e-06
-3.09725e-06
2.48973e-10
-3.65133e-09
8.93913e-07
-1.25626e-06
-1.17608e-06
2.43234e-06
3.10284e-06
-3.1076e-06
4.75442e-09
2.46695e-06
-2.4358e-06
-7.82288e-09
2.36781e-06
-2.03297e-06
1.4464e-06
3.09969e-06
-3.10278e-06
3.09627e-09
3.11758e-06
-3.09637e-06
-2.33587e-06
7.82391e-08
-2.34466e-06
2.34122e-06
3.43957e-09
2.27754e-06
-2.33162e-06
4.9789e-08
3.08719e-06
-2.36781e-06
2.2933e-06
-8.35585e-08
3.11266e-06
-3.10889e-06
-3.77672e-09
2.42293e-06
-2.3144e-06
-1.08535e-07
3.10257e-06
-1.88162e-09
-3.10424e-06
-2.29516e-06
7.39442e-09
2.88032e-07
1.76266e-06
-2.05069e-06
-3.07754e-06
3.07418e-06
3.35623e-09
3.09759e-06
1.09491e-08
-1.96117e-06
-4.10072e-07
2.27182e-08
3.0882e-06
3.1074e-06
-3.11473e-06
7.32648e-09
3.10366e-06
-5.71405e-09
-3.0939e-06
-2.42177e-06
-4.09037e-07
3.10902e-06
6.49331e-09
3.30692e-06
-6.80055e-07
-1.90414e-08
3.10607e-06
-3.08703e-06
3.10453e-06
2.87585e-09
-3.08198e-06
4.44776e-09
-3.09065e-06
-2.2362e-08
-5.88974e-09
3.06445e-06
-3.05856e-06
4.0537e-09
3.10472e-06
3.118e-06
-3.09528e-06
-3.10805e-06
-1.05476e-08
2.37094e-06
-3.29176e-09
2.35065e-06
-1.19801e-07
-2.23085e-06
3.19111e-08
2.31874e-06
-3.06887e-06
3.06298e-06
-3.10754e-06
-6.76238e-09
1.97269e-06
4.08489e-07
-1.15788e-08
2.4033e-06
-2.39172e-06
-1.99123e-06
-1.66526e-06
1.95329e-06
-2.59633e-06
3.22367e-07
2.27396e-06
3.10336e-06
2.38868e-09
-3.10697e-06
3.10681e-08
3.09015e-06
3.09875e-06
-3.09922e-06
4.69291e-10
3.10552e-06
-3.09625e-06
-9.27028e-09
-3.10969e-06
2.10658e-09
-4.47778e-09
-2.34696e-06
2.35144e-06
4.74421e-10
3.10896e-06
-2.1563e-06
6.31771e-07
-3.1057e-06
3.10392e-06
1.7847e-09
-3.07321e-06
3.06952e-06
3.69066e-09
3.05736e-08
2.53588e-06
-2.46173e-06
1.86228e-06
-4.54346e-08
-1.63106e-08
3.10781e-06
-3.0915e-06
-2.77e-06
1.51374e-06
3.10228e-06
2.74852e-09
-3.1062e-06
3.10547e-06
8.06233e-09
-2.90158e-06
2.84571e-08
2.87312e-06
4.91815e-09
-3.07813e-06
3.0994e-06
-3.09615e-06
-3.25414e-09
-9.88951e-08
3.11785e-06
-3.01896e-06
-4.67876e-09
-6.38489e-07
2.9181e-06
-2.27961e-06
-2.33587e-06
-2.57912e-06
3.10135e-06
-1.66527e-09
2.74302e-08
3.09015e-06
3.02482e-06
3.13097e-06
-3.12907e-06
-1.89297e-09
8.79935e-10
-2.35236e-06
2.35148e-06
-3.10317e-06
3.10105e-06
2.11568e-09
6.30105e-08
-2.33821e-06
2.2752e-06
3.10726e-06
-3.10601e-06
-1.25188e-09
-2.40586e-06
2.39428e-06
3.09813e-06
-3.09573e-06
-2.39814e-09
8.71579e-09
3.09681e-06
-3.63195e-08
3.11458e-06
-3.10507e-06
2.9814e-08
-2.28935e-06
3.10501e-06
-3.10445e-06
-5.56297e-10
3.10344e-06
1.8094e-09
-3.10466e-06
3.08753e-06
6.51565e-09
-3.09404e-06
7.47924e-10
3.10538e-06
-3.09667e-06
-7.57187e-09
-2.35157e-06
2.35914e-06
1.66835e-06
-2.45382e-06
7.85476e-07
-5.1891e-07
-2.38267e-06
-2.28289e-06
-5.10977e-07
-2.00142e-06
-3.10158e-06
1.80169e-08
3.08357e-06
-2.36575e-06
2.35157e-06
1.41804e-08
-7.19576e-07
-1.90163e-06
-3.09989e-06
2.76754e-06
-3.0935e-06
3.09898e-06
-5.4865e-09
-2.58452e-06
2.56111e-07
2.32841e-06
2.47128e-06
-1.8984e-06
-5.72879e-07
-3.10442e-06
6.27554e-09
3.09815e-06
2.35573e-06
-2.32595e-06
6.5414e-09
3.09286e-06
-3.10472e-06
3.17529e-09
3.10202e-06
3.10147e-06
1.01414e-08
-5.25033e-10
-3.10387e-06
-1.01819e-08
-3.09552e-06
-3.09663e-06
2.35321e-06
-2.32475e-06
-1.32574e-08
6.63701e-07
2.05183e-06
-2.12021e-06
2.12021e-06
2.70916e-08
3.0909e-06
-3.51908e-06
-2.86314e-06
2.86402e-06
3.10574e-06
2.35125e-06
-2.33361e-06
-3.10105e-06
3.09087e-06
-2.62199e-06
2.685e-06
3.09883e-06
-3.09612e-06
-2.71411e-09
3.79891e-09
3.10205e-06
-3.13833e-06
2.36111e-06
-2.36868e-06
-3.10011e-06
5.24172e-09
1.16863e-06
3.10773e-06
-3.10395e-06
-3.77663e-09
-3.10569e-06
3.09899e-06
-3.09641e-06
-2.58443e-09
-3.09849e-06
-3.09084e-09
3.09181e-06
-3.08233e-06
-2.37017e-06
2.85e-06
3.09631e-06
-3.09531e-06
-9.94149e-10
-5.48252e-09
3.09301e-06
-2.36575e-06
2.05095e-06
-2.22219e-06
1.71231e-07
-3.8176e-06
3.8176e-06
3.10428e-06
3.10488e-06
-7.87954e-09
5.25128e-09
-3.10383e-06
3.11481e-06
-1.09822e-08
3.09805e-06
-3.09545e-06
-2.60348e-09
-2.5706e-06
2.44819e-06
9.66756e-09
3.0964e-06
-3.10435e-06
8.42706e-09
3.09593e-06
-3.09519e-06
3.10188e-06
-3.09773e-06
-2.3774e-06
-3.10178e-06
1.04245e-08
3.09136e-06
-2.38049e-06
-6.75784e-09
2.32313e-06
-2.34028e-06
1.71477e-08
3.09398e-06
-3.09659e-06
2.60702e-09
5.78342e-08
-3.10174e-06
3.09657e-06
5.17027e-09
3.10007e-06
-2.27336e-06
-2.25772e-06
-3.74397e-08
3.10377e-06
-3.10377e-06
-1.5738e-08
2.35782e-06
-3.10202e-06
3.09747e-06
-3.09487e-06
-2.59978e-09
3.10323e-06
-1.73706e-08
-3.09922e-06
-2.30785e-06
-2.83612e-07
-2.36886e-06
1.85325e-06
-2.07029e-06
2.17048e-07
-4.63233e-07
-2.00281e-06
2.46605e-06
3.09172e-06
-3.0835e-06
2.00805e-06
-2.339e-06
-6.74081e-09
-3.09768e-06
3.09915e-06
-3.09658e-06
-2.57325e-09
2.38111e-06
-2.39317e-06
-6.53782e-07
-4.33317e-07
1.0871e-06
-2.46935e-06
2.49005e-06
2.38973e-06
-2.35782e-06
-9.29771e-09
-2.31751e-06
2.3268e-06
-1.18443e-08
-2.29944e-06
2.31128e-06
7.77748e-09
-2.41178e-06
2.404e-06
2.20978e-08
-2.4212e-06
2.3991e-06
1.13302e-08
-2.37158e-06
2.36025e-06
-4.21937e-09
-2.32161e-06
2.32583e-06
-4.40637e-09
-2.31977e-06
2.32417e-06
1.39493e-06
-9.40065e-07
-4.54862e-07
2.05882e-06
1.52611e-08
3.09255e-06
2.26816e-06
-2.28265e-06
1.44979e-08
7.28501e-09
-3.09791e-06
3.09062e-06
3.10599e-06
-3.10599e-06
3.06484e-06
-5.15048e-10
-3.06432e-06
-1.04609e-08
-3.09059e-06
3.09724e-06
-3.09453e-06
-2.70448e-09
-1.92524e-06
-2.52752e-06
-5.70057e-08
2.03004e-06
3.92891e-07
3.10354e-06
-3.09926e-06
-4.27914e-09
-2.36235e-06
2.45611e-06
1.03389e-08
3.09504e-06
-1.70364e-06
-1.06637e-06
2.37664e-08
2.22282e-06
-2.24659e-06
-1.5874e-06
-2.69647e-07
-5.32599e-07
-3.28953e-07
8.61553e-07
2.33147e-06
2.33181e-06
2.43337e-06
2.43367e-06
2.41673e-06
2.38465e-06
-1.09536e-08
-2.33681e-06
2.34777e-06
2.33871e-06
-3.35532e-09
-9.19868e-07
3.09825e-06
-3.09096e-06
-7.6918e-08
2.49254e-06
-3.10739e-06
-2.12084e-06
2.62427e-06
3.06104e-06
2.25378e-09
-3.06329e-06
3.11009e-06
-6.31844e-09
-3.10337e-06
1.1209e-08
3.09216e-06
-2.34022e-06
-2.34696e-06
2.34631e-06
-2.35727e-06
-2.1353e-06
2.57758e-06
-4.42282e-07
-5.56817e-09
-3.09621e-06
1.61915e-06
-2.01827e-06
5.11246e-09
-3.10126e-06
-3.09757e-06
-8.23711e-07
-1.20926e-06
-3.09204e-06
-5.86867e-09
2.37415e-06
7.41145e-07
1.80809e-06
3.09422e-06
-3.09183e-06
-2.39075e-09
2.35765e-06
-1.56055e-06
-7.97106e-07
-1.1233e-06
5.90702e-07
-1.30255e-06
2.81629e-06
-1.12864e-06
2.34573e-06
-1.21709e-06
1.07417e-09
3.10177e-06
-3.0805e-06
3.09638e-06
-3.09819e-06
1.80503e-09
-1.75342e-06
7.47209e-07
1.00621e-06
-1.03016e-08
-2.33619e-06
2.34649e-06
3.24281e-06
-1.4343e-06
-1.80851e-06
2.22472e-09
3.06262e-06
-6.74302e-07
-1.07912e-06
-2.26286e-06
2.28663e-06
1.93133e-06
1.27484e-07
-2.25248e-06
-4.72308e-09
-2.33908e-06
2.3438e-06
2.41532e-06
-2.34132e-06
-1.43767e-06
-5.45903e-07
1.98358e-06
-3.0917e-06
3.09259e-06
-8.94239e-10
-2.28522e-06
2.31504e-06
3.09504e-06
-3.09705e-06
-2.06939e-06
-5.0817e-08
-3.11818e-06
3.10642e-06
-1.61437e-06
2.32945e-09
3.09665e-06
2.70014e-06
-1.49223e-06
-1.20791e-06
2.28444e-06
-4.31198e-07
2.5542e-06
-3.31373e-07
2.34281e-06
-2.35312e-06
3.0909e-06
-3.09099e-06
8.61149e-11
2.34478e-06
-2.3495e-06
2.84127e-09
-3.08926e-06
3.08641e-06
-1.30281e-06
-3.1156e-07
7.36217e-09
-2.37753e-06
-3.09803e-06
4.39028e-09