/*--------------------------------*- C++ -*----------------------------------*\
  =========                 |
  \\      /  F ield         | OpenFOAM: The Open Source CFD Toolbox
   \\    /   O peration     | Website:  https://openfoam.org
    \\  /    A nd           | Version:  12
     \\/     M anipulation  |
\*---------------------------------------------------------------------------*/
FoamFile
{
    format      ascii;
    class       surfaceScalarField;
    location    "0.25";
    object      phi;
}
// * * * * * * * * * * * * * * * * * * * * * * * * * * * * * * * * * * * * * //

dimensions      [0 3 -1 0 0 0 0];

internalField   nonuniform List<scalar> 
6438
(
-4.04936e-08
5.07196e-06
-5.03146e-06
-4.3729e-08
5.89235e-06
-5.84862e-06
-5.52874e-06
-9.42338e-07
6.47108e-06
5.24422e-06
-5.75828e-06
5.1406e-07
8.05503e-06
-6.29415e-06
-1.76088e-06
1.81891e-06
6.23612e-06
-6.28828e-06
7.59545e-07
-5.44621e-06
5.40248e-06
5.8898e-06
-7.02813e-06
1.13833e-06
5.46778e-06
-6.41535e-06
9.47572e-07
-5.28715e-06
6.4375e-06
-1.15035e-06
1.26814e-06
-5.79199e-06
4.52385e-06
-6.55507e-06
1.26792e-06
5.02496e-06
2.30783e-06
-7.33278e-06
4.72326e-06
-4.76375e-06
-2.67164e-07
5.53511e-06
-5.26794e-06
-6.97393e-06
6.76464e-06
2.09283e-07
-5.28031e-06
6.41675e-06
-1.13644e-06
-6.5547e-06
1.27439e-06
2.08056e-06
4.39231e-06
-6.47287e-06
-1.51434e-06
-9.88663e-07
2.503e-06
-3.21491e-07
5.79615e-06
-5.47466e-06
-5.37923e-06
-8.71062e-07
6.25029e-06
-6.58799e-06
2.8869e-06
3.70109e-06
-5.70949e-06
5.388e-06
-5.07057e-06
6.16391e-06
-1.09334e-06
-6.20926e-06
8.30034e-07
5.87641e-06
-4.60827e-06
-5.33847e-06
-1.00478e-06
6.34326e-06
-6.46356e-06
1.39299e-06
4.93932e-06
-6.21866e-06
1.27934e-06
2.71428e-08
-6.05174e-06
6.0246e-06
5.92319e-06
-5.96118e-06
3.79918e-08
-5.86909e-06
9.84436e-07
4.88465e-06
-7.92302e-06
1.28414e-06
6.63888e-06
5.57291e-06
-5.54577e-06
5.62456e-06
-3.80348e-07
3.64863e-06
5.11232e-06
-8.76095e-06
-1.8147e-06
6.83965e-06
-5.23288e-06
5.75109e-06
-5.18213e-07
-6.0645e-06
6.01022e-06
5.42771e-08
-2.51548e-06
4.59604e-06
5.42088e-06
4.68918e-08
-6.5178e-06
6.38453e-06
1.33265e-07
5.83147e-06
-8.9215e-07
-4.39812e-06
4.13096e-06
-7.57872e-06
1.28456e-06
5.76394e-06
5.53836e-07
-6.31778e-06
-4.46964e-06
-1.39944e-06
-8.24046e-07
-5.39052e-06
6.11714e-06
-7.26624e-07
-4.00258e-06
5.78369e-06
-1.78111e-06
5.81411e-06
-5.81411e-06
1.82889e-06
4.4092e-06
5.79556e-07
-4.98876e-06
2.58765e-06
1.26157e-06
-3.84922e-06
4.9215e-06
1.04218e-06
-5.96368e-06
4.75473e-06
-1.86783e-06
-2.75635e-06
-4.82236e-06
-5.73963e-08
5.12632e-06
-5.06893e-06
-6.32131e-06
6.32131e-06
-6.55085e-06
6.62004e-06
-6.91868e-08
2.65809e-07
4.86624e-06
-5.13205e-06
1.80438e-08
-5.96433e-06
5.94629e-06
5.5355e-06
-5.51746e-06
-6.03616e-06
6.97686e-07
-6.05084e-06
-4.66958e-07
-5.20519e-06
5.72358e-06
-5.18385e-07
5.75864e-07
4.98405e-06
-5.55992e-06
-6.12194e-06
5.88689e-06
2.35048e-07
5.96648e-06
-5.96648e-06
5.54225e-06
3.47545e-07
-3.64266e-06
-2.77269e-06
5.19759e-06
1.09572e-06
-6.29331e-06
-5.09704e-06
-9.67458e-07
4.52903e-06
3.4974e-06
-8.02643e-06
-7.01123e-06
4.49575e-06
-4.47028e-06
-2.54096e-06
6.18326e-06
-9.85678e-07
3.68164e-06
-1.094e-06
5.00168e-06
5.74719e-07
-5.57639e-06
-6.16828e-06
-3.82573e-07
-8.70482e-07
-1.50356e-06
-4.81776e-06
6.68842e-06
-6.68842e-06
-4.41839e-06
-1.70355e-06
-4.00168e-07
-7.52285e-06
-5.77091e-06
5.74762e-06
2.32893e-08
2.07928e-07
-5.84298e-06
5.63505e-06
-6.4205e-07
5.64373e-06
5.77539e-06
1.47798e-07
-6.03326e-06
-9.40665e-07
-6.09451e-06
6.25114e-06
-1.56635e-07
6.35352e-06
-3.55656e-06
-2.79696e-06
5.7048e-06
-5.49687e-06
1.15986e-07
6.39315e-06
-3.25348e-06
-3.13967e-06
3.63872e-06
2.7148e-06
5.87107e-06
-5.87107e-06
-4.50285e-06
6.46108e-06
-1.95824e-06
-5.6603e-06
2.69787e-07
-7.73394e-07
-4.58556e-06
5.35895e-06
-5.30433e-06
2.07289e-07
-5.68553e-06
1.18268e-06
4.90677e-06
1.08518e-06
-5.99195e-06
-3.37301e-07
5.24407e-06
-5.12354e-06
5.92e-06
-7.96464e-07
-5.44453e-06
2.11652e-07
3.74719e-06
2.64596e-06
5.66725e-06
-1.1434e-06
2.4333e-07
5.57078e-06
-4.89275e-06
-4.11576e-07
5.11651e-06
1.08882e-06
-6.20532e-06
-2.82763e-06
-2.44105e-06
5.26868e-06
3.72394e-06
-4.67286e-07
-3.25666e-06
-6.05174e-06
1.2268e-06
6.07056e-06
-7.29736e-06
-2.81296e-06
1.29862e-06
6.05507e-06
1.08839e-07
6.55835e-06
-3.39515e-06
-3.1632e-06
2.19616e-06
4.36218e-06
6.13032e-06
-1.01381e-06
7.47547e-06
-3.82683e-06
-5.53893e-06
1.39e-08
5.52503e-06
-7.92092e-06
8.11378e-07
7.10954e-06
-9.06631e-08
-5.49772e-06
5.58839e-06
6.04846e-06
3.36076e-07
-4.66421e-06
4.60681e-06
-5.56587e-06
5.67794e-06
-1.12072e-07
5.63569e-06
-5.72635e-06
5.8144e-06
-5.8144e-06
5.72857e-06
1.6378e-07
5.73958e-06
-1.33038e-06
5.66281e-06
-5.397e-06
-4.98733e-06
4.21394e-06
5.10731e-08
5.49536e-06
-5.54644e-06
6.45673e-06
-4.52565e-06
-1.93109e-06
-5.96433e-06
-8.5262e-08
6.66426e-08
-5.51285e-06
-5.52634e-06
3.21152e-07
6.38706e-08
5.50904e-06
5.33128e-06
-4.75542e-06
-5.49828e-06
3.74738e-07
5.57916e-06
-1.58275e-07
-1.98948e-07
4.85456e-06
-4.65561e-06
3.81642e-06
2.64031e-06
-5.71861e-06
1.22635e-06
4.49226e-06
5.82673e-06
-4.30451e-08
-7.70735e-06
7.03219e-07
7.00413e-06
-7.78714e-08
-5.4687e-06
5.54658e-06
3.63542e-06
8.85259e-08
3.46778e-07
5.47995e-06
5.42474e-06
4.51671e-07
5.60253e-06
-5.6804e-06
-5.83835e-06
-1.94912e-07
5.95437e-06
-6.39567e-06
4.41293e-07
-5.32538e-06
-2.13547e-07
-6.48046e-06
2.80982e-06
3.67065e-06
4.23363e-09
5.60343e-06
1.92721e-07
-5.27254e-06
6.13092e-06
-8.58378e-07
-5.81634e-06
5.00759e-06
8.08751e-07
-7.8602e-07
2.03106e-06
-1.24504e-06
-1.82167e-06
-4.64189e-06
-5.84298e-06
-4.61431e-08
5.58164e-06
1.70875e-06
4.75233e-06
-9.32557e-08
-5.68291e-06
-2.65804e-08
-1.19821e-07
-6.21415e-06
5.25182e-06
9.62338e-07
-3.65935e-07
4.62931e-06
9.12944e-07
9.08367e-06
-3.97136e-06
-1.92234e-06
-4.63236e-06
5.69825e-06
7.71364e-08
-4.89387e-06
2.06624e-06
-2.19512e-06
-3.46802e-06
5.66314e-06
-1.96042e-06
-4.59464e-06
-3.19204e-06
7.72107e-06
-5.87398e-06
1.91069e-07
-5.54664e-06
5.56799e-06
-2.13511e-08
-4.58528e-06
4.38633e-06
-6.67501e-08
-5.43619e-06
5.50294e-06
-5.97571e-06
1.01731e-07
4.98516e-06
-5.93152e-06
9.46363e-07
5.55375e-06
-5.6205e-06
4.96348e-06
-1.87969e-06
-3.08379e-06
-7.50561e-06
2.65739e-06
4.84822e-06
5.09033e-06
4.88829e-07
4.20488e-06
2.55976e-06
1.2295e-06
5.45892e-06
-1.45729e-06
-5.23114e-06
-6.04602e-06
5.99301e-06
5.30162e-08
-6.02992e-06
-1.60979e-08
-5.99862e-06
-3.13035e-08
1.72959e-08
1.55983e-06
-8.73733e-06
7.1775e-06
-6.4911e-06
7.71789e-06
5.1257e-06
-5.07462e-06
5.47609e-06
2.28706e-07
4.46887e-07
4.51659e-06
-5.49772e-06
-4.98466e-06
4.96067e-06
6.19331e-07
-5.58e-06
-2.85794e-08
-1.18244e-06
8.72464e-06
-7.5422e-06
8.27668e-06
-5.96886e-06
-2.50963e-06
3.7712e-06
-1.59105e-06
-4.88941e-06
-4.3451e-06
-3.16052e-06
-5.49665e-06
-3.41696e-07
-5.53474e-06
5.53395e-06
7.88985e-10
-8.75362e-07
5.19745e-06
-4.32208e-06
-5.93997e-06
5.98183e-06
-4.18573e-08
-5.878e-06
-6.19753e-08
-7.55659e-06
4.70086e-07
7.08651e-06
-5.28268e-06
-3.42698e-07
5.62537e-06
5.91778e-06
6.40451e-08
-1.0521e-06
-6.4673e-06
2.355e-06
4.1123e-06
3.75669e-08
-3.42516e-06
-3.04214e-06
-8.08384e-08
-6.03933e-08
-5.40567e-06
5.46606e-06
-5.55985e-06
2.77176e-07
5.02458e-06
6.73673e-07
5.79083e-06
-5.5475e-06
5.50179e-06
-5.56218e-06
5.47773e-06
1.57958e-07
2.69185e-06
5.58483e-06
5.72118e-06
-1.09187e-06
-4.48947e-07
-7.47197e-06
-3.279e-07
4.51571e-06
-4.18781e-06
-5.85e-06
-2.79927e-08
-5.84919e-06
-8.13874e-10
5.89647e-06
-5.85439e-06
-4.20719e-08
5.83191e-06
6.45565e-08
-5.4687e-06
1.35009e-06
-1.85447e-06
5.04377e-07
-6.6043e-06
3.86324e-06
2.74106e-06
2.95951e-06
-5.93252e-06
2.97301e-06
-5.17848e-06
-4.81828e-07
-5.51629e-06
5.48896e-06
2.73326e-08
-5.73982e-06
5.53546e-06
2.04356e-07
-4.58246e-07
5.87383e-06
-5.41558e-06
-5.69886e-06
1.39011e-07
-6.32732e-06
7.88715e-06
-5.88402e-07
-5.13021e-06
-5.94859e-06
5.49035e-06
-4.66137e-06
-4.29235e-07
5.09061e-06
-4.37073e-06
5.79421e-06
3.7704e-08
-3.97056e-06
-1.06216e-06
1.17774e-06
-1.15579e-07
-5.49829e-08
2.12673e-07
-7.54853e-06
7.33586e-06
-4.2326e-06
-2.05568e-06
-5.87778e-06
5.75703e-06
1.20744e-07
-5.78746e-06
-9.03162e-08
-2.08199e-06
1.29597e-06
5.46787e-06
1.34667e-07
5.84023e-06
-9.73987e-07
5.78162e-06
-5.7747e-06
-6.91675e-09
-1.56325e-08
-5.36429e-06
5.37992e-06
6.05113e-06
-4.34238e-06
-7.27782e-08
6.00544e-06
3.38749e-06
-9.39292e-06
5.95084e-06
-5.95084e-06
9.19093e-07
5.40222e-06
-2.09981e-06
-3.7143e-06
-4.74247e-06
5.71554e-06
-9.73076e-07
-6.33721e-07
-5.10609e-06
5.47411e-06
-5.48974e-06
-5.24168e-06
8.96065e-08
5.15207e-06
1.00613e-06
-5.31292e-06
4.30679e-06
-5.50064e-06
5.44403e-06
5.66083e-08
3.51333e-06
2.5378e-06
-1.71889e-07
-8.90272e-07
-3.30228e-06
-3.30202e-06
-1.26222e-06
-5.87209e-06
5.99553e-07
-5.43619e-06
4.92593e-06
1.02844e-06
-4.57676e-06
-5.13848e-06
4.77103e-07
-5.24326e-06
3.04814e-06
5.94884e-06
-4.83648e-06
-1.11236e-06
1.01659e-06
4.77424e-06
-4.21335e-06
-1.99591e-06
-5.81995e-06
5.81995e-06
5.82107e-06
-5.59735e-06
-2.23714e-07
3.35716e-07
-5.51419e-06
-4.65717e-06
5.2649e-06
-6.0773e-07
-1.84577e-06
8.57109e-07
5.42338e-06
-5.4498e-06
2.6415e-08
5.6954e-06
6.16342e-08
5.7555e-06
6.55711e-08
8.69728e-06
-5.54967e-06
-1.49191e-07
-4.86926e-06
3.9939e-06
5.46057e-06
9.31869e-08
5.73803e-06
-5.70531e-06
-3.27161e-08
-4.94322e-08
-7.92998e-08
5.98991e-07
-4.92018e-06
4.32119e-06
-1.72961e-07
-7.53439e-06
1.80195e-06
4.06399e-07
-5.06357e-06
-5.48914e-06
5.40548e-06
8.36597e-08
5.47724e-06
-4.92084e-07
-2.55845e-06
-3.40273e-06
-7.67354e-06
5.68816e-07
-3.07845e-06
-9.11427e-07
2.3218e-08
5.64232e-06
-5.02299e-06
-5.40567e-06
-5.41443e-06
1.40984e-07
5.27345e-06
7.64388e-06
1.08075e-06
4.40544e-06
2.21459e-06
5.33097e-06
-2.37146e-06
5.56784e-06
-3.16026e-07
1.27694e-05
-9.38188e-06
-8.73733e-06
-2.79991e-06
-3.01642e-06
-7.05417e-08
5.93537e-06
-5.56076e-06
-3.74605e-07
5.62579e-06
1.29708e-07
6.50788e-07
-5.39325e-06
-4.00189e-06
4.60088e-06
5.45444e-06
4.73482e-08
4.28442e-06
1.89885e-06
5.72235e-06
2.13015e-07
5.71718e-06
-5.63519e-06
-8.19895e-08
-2.57399e-06
-3.64467e-06
-2.5759e-07
5.26518e-06
9.79315e-08
-6.06441e-06
4.7406e-06
-3.73447e-06
-7.95254e-08
1.19826e-07
4.62394e-06
-5.02114e-06
3.97206e-07
8.44881e-07
4.87066e-06
7.75849e-06
-7.54581e-06
2.69964e-06
3.41751e-06
-5.47493e-06
5.41069e-06
6.42403e-08
-1.26288e-07
-3.18207e-06
1.74214e-06
1.43993e-06
-5.70091e-08
5.94843e-06
-5.94843e-06
6.71905e-06
-3.89547e-06
-2.82357e-06
-4.93076e-06
-8.27519e-07
4.15821e-06
1.9721e-06
5.68984e-06
3.2511e-08
-5.36429e-06
5.3223e-06
3.38087e-08
-5.35611e-06
4.35779e-06
6.06441e-06
-6.0246e-06
1.53526e-07
7.08149e-06
-6.27012e-06
5.48388e-06
-5.842e-06
5.44531e-06
-1.23016e-07
4.91569e-06
-5.31904e-06
5.291e-06
2.80399e-08
2.48967e-07
4.26771e-06
-4.51668e-06
-4.84065e-06
3.99815e-06
-3.62734e-07
5.0631e-06
6.87989e-07
-4.84283e-08
-4.68091e-06
-8.17363e-07
-7.00877e-06
4.43479e-06
7.5455e-09
-5.33293e-06
-5.67919e-06
-2.69405e-07
7.60712e-06
-4.10972e-06
5.46513e-08
-9.83791e-07
6.04878e-06
-5.06499e-06
-2.5844e-06
-5.97672e-07
5.2982e-06
-5.35542e-06
5.72221e-08
-5.48388e-06
5.43738e-06
2.35824e-06
3.36943e-06
-5.72767e-06
5.70092e-06
-1.07699e-06
4.73708e-07
5.0614e-06
5.59051e-06
5.40404e-07
6.09917e-07
7.40172e-07
-5.94629e-06
1.31889e-07
-4.72082e-06
5.37161e-06
-2.73422e-06
3.30304e-06
5.04588e-07
-4.96007e-06
4.45548e-06
-4.00771e-08
1.05183e-07
-4.94809e-06
-5.62728e-06
5.52424e-06
1.03044e-07
-5.39853e-06
5.62053e-07
3.5226e-06
3.19645e-06
-3.03815e-06
6.22955e-06
-3.1914e-06
6.24268e-06
-5.82798e-06
-4.14709e-07
1.55272e-07
3.84288e-06
-5.35714e-06
-5.72963e-08
5.43737e-06
7.94578e-09
2.68881e-06
-9.46661e-07
6.92145e-06
-6.21823e-06
4.96323e-06
7.60344e-07
3.13069e-07
-5.52076e-06
8.39847e-07
8.45228e-08
-4.80534e-06
6.165e-06
-4.98232e-06
5.02643e-06
-3.05951e-07
-4.78479e-06
5.09074e-06
-5.41106e-06
5.63477e-06
-6.67826e-08
-8.19738e-06
6.55187e-07
-3.46994e-08
5.30802e-06
1.0267e-07
-5.01243e-06
-5.50036e-06
5.47731e-06
2.30425e-08
6.58235e-06
-3.8225e-06
-2.75985e-06
-4.61602e-06
-4.15152e-07
5.03117e-06
-1.24312e-08
-5.44006e-06
1.16971e-07
-5.88068e-07
5.80994e-06
-5.22187e-06
-5.32634e-06
5.35275e-06
-7.72955e-06
-1.12845e-06
-7.47716e-06
7.28985e-06
1.87309e-07
4.26806e-06
2.16943e-06
4.99572e-06
4.47987e-07
-5.44371e-06
5.30869e-06
-2.18356e-07
4.28045e-06
2.13629e-06
-3.7896e-06
1.2052e-06
-5.36519e-06
4.66106e-06
-5.30311e-06
-7.20322e-06
7.17706e-06
2.61515e-08
6.50731e-06
-5.22317e-06
5.30701e-06
-1.60109e-08
3.26271e-07
-4.9493e-06
4.62303e-06
-8.00192e-08
-7.1232e-06
6.43162e-06
-6.43162e-06
-2.92669e-06
5.51793e-06
-2.59124e-06
-5.31149e-06
5.31149e-06
5.43135e-06
-4.80168e-06
-6.29669e-07
5.05128e-06
1.19986e-06
5.65982e-06
-4.64323e-06
5.59662e-06
-6.26738e-08
-4.38143e-06
-7.01891e-07
5.08332e-06
-7.11541e-06
7.13953e-06
-2.41142e-08
6.56353e-06
-3.95105e-06
-2.61248e-06
9.59347e-07
4.70047e-06
-7.1899e-06
7.15391e-06
3.59877e-08
-1.28973e-09
-5.23429e-08
7.09513e-06
-7.04279e-06
-7.1625e-06
7.1625e-06
-8.52783e-08
5.38348e-06
7.68603e-06
-7.16505e-06
-5.20979e-07
-7.19436e-06
7.14202e-06
7.18817e-06
-7.15152e-06
-3.66577e-08
-5.2374e-06
-1.18015e-07
6.12627e-06
-8.17214e-08
7.14038e-06
-7.05866e-06
7.14262e-06
-7.15605e-06
1.34368e-08
-5.39858e-06
7.1055e-06
-1.03647e-08
-5.49388e-06
5.44478e-06
4.90976e-08
-7.10413e-06
7.12971e-06
-2.55764e-08
5.44138e-06
-5.3004e-06
-7.17535e-06
7.09363e-06
5.50289e-06
-1.74904e-06
2.62096e-06
3.42782e-06
-3.97871e-06
-3.03006e-06
-7.15043e-06
7.15043e-06
-7.1832e-06
-1.1163e-08
6.64973e-06
-1.21891e-06
-5.43082e-06
-4.68794e-06
3.18438e-06
1.79206e-07
7.11692e-06
-7.13893e-06
2.20177e-08
5.23837e-06
-5.23331e-06
-5.05535e-09
7.33865e-06
-7.14808e-06
-1.90568e-07
7.07996e-06
3.69598e-08
7.06693e-06
7.34518e-08
-1.45239e-08
-5.29697e-06
-6.55499e-06
3.60725e-06
2.94775e-06
-5.28952e-06
5.32333e-06
7.10237e-06
-2.241e-08
7.45815e-07
4.82203e-06
3.8196e-06
-1.46137e-06
-7.16499e-06
-1.03592e-08
5.84355e-06
3.46782e-06
-5.90886e-06
-8.99916e-07
-7.29747e-06
5.33082e-06
-5.36167e-06
3.08419e-08
-2.47086e-07
-7.23007e-06
5.55092e-06
-6.19619e-08
6.17207e-06
-4.22289e-06
-1.94918e-06
-5.3424e-06
7.11318e-06
-7.11318e-06
5.08915e-06
6.54752e-08
-5.15462e-06
5.4781e-06
-7.12813e-06
7.11879e-06
9.34e-09
7.07776e-06
-7.14592e-06
6.81598e-08
4.50573e-06
-5.96302e-06
-1.89902e-08
-7.07795e-06
7.09694e-06
7.06163e-06
-7.08063e-06
-2.36393e-07
7.52624e-06
-5.65491e-06
6.125e-06
-6.39814e-06
4.43772e-06
-1.12497e-07
7.28956e-06
6.13093e-07
3.15811e-06
5.92612e-08
6.59047e-06
-1.92633e-08
5.70428e-06
-5.68501e-06
-4.84859e-08
-7.14522e-06
-4.4675e-08
5.86473e-06
-5.86736e-07
-5.278e-06
-7.09768e-06
7.09768e-06
4.16837e-06
-3.58881e-06
-7.1565e-06
7.13776e-06
1.87362e-08
5.46537e-06
-5.46537e-06
5.32122e-06
-8.28561e-08
7.10739e-06
-7.1188e-06
1.14141e-08
-6.86073e-06
1.87607e-06
7.08853e-09
-5.27937e-06
5.27228e-06
5.72582e-06
-4.78768e-08
7.12236e-06
6.58149e-08
4.32053e-06
7.37542e-07
-5.05807e-06
7.1441e-06
-3.86003e-08
5.5496e-06
-5.5496e-06
7.09867e-06
-7.074e-06
-2.46669e-08
-5.42795e-06
5.38795e-06
3.99984e-08
7.15296e-06
-7.13126e-06
-2.16989e-08
-7.10942e-06
7.10942e-06
1.05816e-06
4.97757e-06
1.67932e-07
-5.1455e-06
-7.15708e-06
7.13846e-06
1.86129e-08
-2.63697e-08
-5.35922e-06
5.32845e-06
2.37417e-09
6.65227e-06
-1.25779e-06
-5.39449e-06
4.59578e-06
7.08065e-06
-7.10018e-06
1.95291e-08
5.47212e-06
5.84555e-06
8.24025e-08
5.00675e-06
7.26055e-06
-1.38186e-07
7.05742e-06
2.3232e-08
5.1932e-06
-5.1932e-06
-2.73422e-06
7.18053e-06
-7.12413e-06
-2.17963e-08
7.12043e-06
-7.09361e-06
-2.68207e-08
1.392e-07
-7.25556e-06
7.11636e-06
7.45887e-07
-7.1775e-06
-7.14413e-06
7.13183e-06
1.23043e-08
5.15769e-06
-5.15495e-06
-2.74297e-09
5.43135e-06
-4.79339e-06
4.79339e-06
7.07173e-06
-1.43096e-08
-5.3024e-06
-4.9493e-06
4.99572e-06
5.50123e-06
-5.71937e-08
-1.60709e-08
5.63497e-07
-7.0233e-06
7.11926e-06
-7.12151e-06
2.25322e-09
1.70459e-07
4.98723e-06
1.64238e-07
5.7005e-06
5.36304e-06
-4.18155e-08
-7.12818e-06
7.11993e-06
8.25293e-09
7.06536e-06
-7.08506e-06
1.96974e-08
-7.12181e-06
-3.46875e-08
7.10246e-06
-7.0838e-06
-1.86568e-08
5.36277e-06
1.02595e-07
7.1069e-06
3.08646e-08
-8.92115e-09
7.09095e-06
2.89762e-08
-1.0799e-09
-5.25258e-06
-7.19902e-06
7.58277e-08
-5.32792e-06
5.32792e-06
6.56357e-08
6.58664e-06
-5.41405e-06
1.03262e-06
3.72495e-08
7.10537e-06
2.95705e-07
-5.11939e-06
4.82368e-06
4.93252e-08
7.11318e-06
6.78611e-06
-7.40144e-06
5.35767e-06
1.91927e-07
7.06163e-06
-5.4812e-08
5.03238e-06
-5.18099e-06
2.60418e-08
5.10456e-06
-7.84037e-07
-7.07928e-06
7.07928e-06
-7.11721e-06
-3.98659e-08
4.80168e-06
-4.97662e-06
1.74938e-07
-7.11318e-06
5.24278e-06
-5.23569e-06
7.10341e-06
3.50582e-08
-7.10673e-06
-6.32051e-06
4.39818e-06
-7.13704e-06
7.12517e-06
1.18646e-08
4.85278e-06
4.55907e-07
5.27937e-06
3.21276e-08
-7.0564e-06
7.10475e-06
-4.83526e-08
-5.35993e-06
5.31226e-06
4.76602e-08
-7.07899e-06
2.25891e-08
5.3395e-06
-1.10491e-08
2.9613e-07
-5.51995e-06
5.22383e-06
7.07732e-06
-7.10864e-06
3.13175e-08
5.75711e-06
-6.02652e-06
7.07654e-06
-7.07577e-06
-7.71887e-10
-4.52288e-06
4.52288e-06
-5.56841e-06
5.56841e-06
-7.06842e-06
-1.05683e-08
-3.30304e-06
3.91613e-06
-7.08862e-06
7.0782e-06
1.04256e-08
5.52467e-08
7.09518e-06
4.42072e-06
-3.91613e-06
-4.42072e-06
4.66968e-06
4.69326e-06
-5.39516e-06
6.47031e-06
-3.83439e-06
-2.63592e-06
-7.114e-06
-3.01294e-08
-1.02605e-06
-4.66968e-06
5.69574e-06
7.1051e-06
2.67309e-08
-5.38297e-06
4.98897e-06
7.12548e-06
-7.11109e-06
-1.43918e-08
-7.08369e-06
-5.33476e-06
5.35867e-06
-1.6547e-07
-1.89663e-08
7.12133e-06
7.09156e-06
-5.27228e-06
-7.26058e-06
-4.25981e-06
5.44371e-06
-1.1839e-06
-7.05246e-06
-2.54895e-08
7.08233e-06
8.62457e-09
4.1305e-06
-4.21928e-06
8.87774e-08
8.12083e-09
4.97662e-06
-5.17644e-06
1.99818e-07
3.26251e-06
3.31984e-06
-7.1108e-06
-2.62398e-08
-5.38536e-06
7.05119e-06
-7.0453e-06
-5.8815e-09
7.10231e-06
2.28629e-08
-7.12286e-06
7.1152e-06
7.65549e-09
5.44456e-06
5.36277e-06
-7.06927e-06
7.05382e-06
1.54491e-08
7.11916e-06
-7.11604e-06
-3.12058e-09
-5.29429e-06
5.35767e-06
7.06592e-06
-7.06592e-06
2.81099e-08
7.1258e-06
-4.46157e-06
-9.5248e-07
7.08077e-06
-3.44115e-09
-9.10592e-07
4.83705e-06
-3.92645e-06
7.0626e-06
-7.05649e-06
-6.11447e-09
2.16064e-08
7.09157e-06
7.04977e-06
-7.05603e-06
6.25864e-09
-7.13214e-06
-7.10652e-06
-4.27953e-06
6.10838e-09
7.11268e-06
-7.44739e-09
-7.08725e-06
7.0947e-06
-7.0664e-06
7.05099e-06
1.54093e-08
-7.11051e-06
-1.23464e-08
-5.38273e-06
-5.19826e-06
1.7269e-08
7.10327e-06
1.19294e-08
-7.06e-06
7.05702e-06
2.98148e-09
-7.06485e-06
2.65415e-08
7.03831e-06
7.10839e-06
1.70959e-08
-7.0864e-06
-2.46953e-08
-5.16889e-06
-2.43102e-08
7.1049e-06
-7.10928e-06
4.3821e-09
7.06269e-06
-7.07014e-06
-7.07728e-06
7.06752e-06
9.76039e-09
7.05966e-06
-7.05394e-06
-5.72033e-09
5.32322e-06
4.69908e-09
7.10725e-06
1.19049e-08
-7.09735e-06
-1.86884e-08
-7.12341e-06
5.35867e-06
-7.06344e-06
7.04937e-06
1.40713e-08
4.68821e-06
-4.99416e-06
-7.04352e-06
7.06992e-06
-2.64036e-08
7.06533e-06
-7.07587e-06
1.05378e-08
-1.72279e-08
-7.10367e-06
-6.84666e-09
-1.84046e-08
-6.27068e-06
4.44901e-06
-1.21127e-08
7.06269e-06
-1.16946e-08
-7.52343e-09
-7.10966e-06
5.98953e-09
2.71841e-06
5.97353e-06
-8.69194e-06
-1.47207e-06
7.10495e-06
-5.71718e-11
-7.09157e-06
1.30755e-08
7.0846e-06
-7.09589e-06
-1.33897e-08
-5.34086e-06
-7.11673e-06
7.07363e-09
2.4823e-08
7.08256e-06
-1.12381e-09
3.36083e-08
-6.9963e-06
6.96269e-06
7.11474e-06
-7.11111e-06
-3.63314e-09
-5.43623e-06
9.74658e-07
7.10104e-06
-7.0886e-06
-1.24409e-08
-7.10573e-06
-5.26862e-06
-2.77812e-07
7.05816e-06
-7.05259e-06
-5.57366e-09
3.70544e-08
-7.00295e-06
6.9659e-06
-7.11297e-06
7.09971e-06
1.32567e-08
-5.37812e-06
5.33376e-06
4.43595e-08
6.25762e-09
-7.11291e-06
-3.82005e-09
-5.40789e-06
1.12177e-06
4.28612e-06
-7.10362e-06
-9.35396e-09
7.11241e-06
2.33403e-09
-7.10076e-06
-1.03509e-08
-2.82528e-08
-7.11336e-06
4.52977e-10
-5.11502e-06
-5.97359e-07
5.71238e-06
4.08671e-06
2.98636e-08
-7.0846e-06
5.33483e-06
-2.25618e-08
-7.05778e-06
7.05778e-06
-1.36484e-08
7.10899e-06
3.41435e-09
-5.63004e-09
1.10384e-08
1.13642e-08
7.11169e-06
-2.69161e-09
4.19459e-09
7.10984e-06
-7.1099e-06
5.8348e-11
5.13193e-06
-5.13193e-06
-7.09516e-06
7.07991e-06
1.52453e-08
7.06958e-06
-7.06233e-06
-7.25729e-09
-9.97173e-09
7.10724e-06
4.44988e-09
7.10758e-06
2.25718e-09
-2.66105e-09
7.10828e-06
7.10134e-06
-7.10527e-06
3.93233e-09
-7.16986e-06
-7.07864e-06
-1.65217e-08
5.47255e-06
-6.70665e-08
7.09497e-06
6.36463e-09
5.94903e-08
7.10037e-06
-7.09259e-06
-7.7857e-09
-5.07184e-06
5.07184e-06
3.97131e-08
7.06971e-06
-7.05665e-06
7.06797e-06
-1.13258e-08
7.09887e-06
1.50705e-09
5.59531e-08
5.30709e-06
7.09046e-06
-7.08779e-06
-2.6674e-09
-7.03457e-06
-2.20835e-08
7.07039e-06
-7.07618e-06
5.78491e-09
7.08588e-06
4.58032e-09
7.09899e-06
8.5957e-09
-7.03652e-08
-7.01688e-06
-1.18246e-08
-6.25219e-07
-4.76803e-06
7.05932e-06
-7.06616e-06
6.84401e-09
2.1216e-07
4.91977e-06
7.08955e-06
-7.08291e-06
-6.64545e-09
-6.28424e-09
-1.21016e-07
-5.89895e-06
6.01997e-06
-5.13529e-06
5.19364e-06
-5.83563e-08
-7.02622e-06
7.02848e-06
-2.25167e-09
7.0814e-06
8.15538e-09
-7.06047e-06
-4.41419e-06
7.13261e-06
7.08416e-06
-7.07409e-06
-1.00676e-08
-7.09103e-06
7.09121e-06
-1.83802e-10
7.07063e-06
-7.06422e-06
-6.41162e-09
-6.87223e-07
-6.06459e-06
6.75181e-06
7.0769e-06
7.26422e-09
-7.03159e-06
5.36897e-09
7.08518e-06
-7.0761e-06
-9.08009e-09
5.32322e-06
-5.45159e-06
5.45159e-06
7.08255e-06
-7.06922e-06
-1.3335e-08
-1.3667e-08
7.0854e-06
-1.11163e-08
-5.33078e-06
7.07257e-06
9.97801e-09
-7.09039e-06
-1.32314e-08
-7.02082e-06
7.02454e-06
-3.72245e-09
7.09111e-06
3.86493e-09
1.19672e-07
7.01985e-06
-1.47879e-09
7.08449e-06
1.79681e-08
5.30637e-06
2.84526e-08
8.28706e-10
-7.02774e-06
6.92135e-09
5.41317e-07
1.96405e-08
2.28774e-07
7.064e-06
-7.07063e-06
6.62578e-09
-7.01338e-06
7.02153e-06
-8.15126e-09
1.25415e-07
-5.31386e-06
5.18845e-06
9.49835e-07
-5.53517e-06
4.58533e-06
2.02959e-06
5.01765e-06
-5.01765e-06
7.05913e-06
-7.05913e-06
-5.81355e-06
3.25022e-09
-7.07252e-06
5.41742e-06
7.08294e-06
1.59237e-08
-1.33643e-06
-2.48405e-06
3.82048e-06
-7.0236e-06
1.02197e-08
-7.02762e-06
-2.27944e-07
3.0033e-06
-4.95587e-06
1.95257e-06
-4.85178e-09
4.79457e-08
7.02197e-06
1.95272e-08
5.31997e-06
-7.09294e-06
1.49148e-08
7.06436e-06
4.50639e-06
-5.49851e-06
9.92124e-07
4.58615e-06
-1.58285e-06
-8.82085e-09
-7.05758e-06
7.09398e-06
-7.04603e-06
-7.07371e-06
-7.00411e-06
6.99746e-06
6.64934e-09
1.55643e-09
7.07664e-06
7.05181e-06
7.32206e-09
6.44366e-06
-4.27611e-06
-2.16755e-06
-2.5293e-08
5.38297e-06
7.07473e-06
1.11539e-08
6.44123e-06
-7.12845e-06
4.77829e-08
7.0218e-06
-8.33733e-09
-7.0551e-06
-7.01228e-06
8.17181e-09
-5.15152e-06
1.6235e-08
5.41225e-06
-4.33932e-06
-1.07293e-06
7.03926e-06
-7.03987e-06
6.13987e-10
-8.18217e-09
2.03106e-06
-2.85497e-06
-2.67511e-06
5.53008e-06
7.05234e-06
-7.0632e-06
1.08591e-08
5.62047e-06
-5.55499e-06
-1.99529e-08
5.38273e-06
-4.62253e-06
3.2861e-06
7.04524e-06
-7.05233e-06
7.08654e-09
7.08572e-06
-7.03794e-06
-5.30786e-06
1.75931e-07
-5.3282e-06
5.32176e-06
6.43938e-09
5.17644e-06
-5.29745e-06
1.12165e-07
7.01754e-06
-5.37486e-06
5.21438e-06
-1.89794e-07
7.07479e-06
-7.06621e-06
-8.57613e-09
5.50887e-06
-5.2628e-06
-2.46069e-07
7.05181e-06
-4.25486e-09
-7.05574e-06
-5.21564e-06
1.73767e-08
6.53777e-07
4.00645e-06
-4.66022e-06
-6.99517e-06
6.98758e-06
7.5871e-09
7.04072e-06
2.46101e-08
-4.45933e-06
-9.35822e-07
5.1183e-08
7.01945e-06
7.06314e-06
-7.0796e-06
1.64627e-08
7.05444e-06
-1.30381e-08
-7.03227e-06
-5.51749e-06
-9.29838e-07
7.06673e-06
1.46717e-08
7.51254e-06
-1.53901e-06
-4.2708e-08
7.05966e-06
-7.01695e-06
7.0566e-06
6.53907e-09
-7.00511e-06
9.93863e-09
-7.02554e-06
-5.02349e-08
-1.34923e-08
6.96538e-06
-6.95189e-06
9.1572e-09
7.05676e-06
7.08665e-06
-7.03546e-06
-7.06436e-06
-2.66927e-08
5.38536e-06
-7.36471e-09
5.34193e-06
-2.76386e-07
-5.06554e-06
7.17573e-08
5.27017e-06
-6.97531e-06
6.96182e-06
-7.06335e-06
-1.52836e-08
4.48386e-06
9.28392e-07
-2.68146e-08
5.46358e-06
-5.43676e-06
-4.5254e-06
-3.78626e-06
4.44004e-06
-5.90415e-06
7.29534e-07
5.17462e-06
7.05378e-06
5.37538e-09
-7.06186e-06
7.00183e-08
7.02396e-06
7.04318e-06
-7.04422e-06
1.03692e-09
7.05858e-06
-7.03758e-06
-2.10013e-08
-7.06812e-06
4.62078e-09
-1.02136e-08
-5.33325e-06
5.34346e-06
1.02257e-09
7.0665e-06
-4.903e-06
1.43498e-06
-7.05884e-06
7.05491e-06
3.93409e-09
-6.98534e-06
6.97702e-06
8.3198e-09
6.83503e-08
5.77528e-06
-5.60734e-06
4.2317e-06
-1.012e-07
-3.65823e-08
7.06361e-06
-7.02703e-06
-6.29907e-06
3.4441e-06
7.05132e-06
6.24479e-09
-7.06018e-06
7.05867e-06
1.82268e-08
-6.59786e-06
6.6399e-08
6.53147e-06
1.1025e-08
-6.99637e-06
7.0447e-06
-7.0373e-06
-7.4071e-09
-2.22753e-07
7.08648e-06
-6.86372e-06
-1.05479e-08
-1.44795e-06
6.63138e-06
-5.18343e-06
-5.30786e-06
-5.89015e-06
7.04914e-06
-3.8998e-09
6.18041e-08
7.02392e-06
6.87216e-06
7.1156e-06
-7.11014e-06
-5.45675e-09
-4.26476e-10
-5.34133e-06
5.34176e-06
-7.05318e-06
7.0484e-06
4.7831e-09
1.42475e-07
-5.31136e-06
5.16889e-06
7.06251e-06
-7.05956e-06
-2.95557e-09
-5.4686e-06
5.44179e-06
7.04174e-06
-7.03632e-06
-5.41747e-09
1.97466e-08
7.03883e-06
-7.61126e-08
7.07925e-06
-7.05774e-06
7.44741e-08
-5.20653e-06
7.05733e-06
-7.05613e-06
-1.19957e-09
7.0539e-06
4.12176e-09
-7.05671e-06
7.01781e-06
1.49179e-08
-7.03272e-06
1.68062e-09
7.05825e-06
-7.0385e-06
-1.6733e-08
-5.34482e-06
5.36155e-06
3.78943e-06
-5.57653e-06
1.7871e-06
-1.18945e-06
-5.40842e-06
-5.17992e-06
-1.16644e-06
-4.54868e-06
-7.04958e-06
4.05808e-08
7.009e-06
-5.37746e-06
5.34482e-06
3.26452e-08
-1.63624e-06
-4.32678e-06
-7.04598e-06
6.29042e-06
-7.03139e-06
7.04375e-06
-1.23634e-08
-5.87684e-06
5.84439e-07
5.2924e-06
5.60844e-06
-4.30993e-06
-1.29851e-06
-7.05598e-06
1.41201e-08
7.04186e-06
5.35304e-06
-5.2864e-06
1.47363e-08
7.02997e-06
-7.05676e-06
7.15674e-09
7.05063e-06
7.04966e-06
2.29144e-08
-1.16571e-09
-7.05487e-06
-2.27524e-08
-7.03609e-06
-7.03845e-06
5.34671e-06
-5.28031e-06
-2.99442e-08
1.50675e-06
4.66532e-06
-4.83144e-06
4.83144e-06
6.11438e-08
7.0255e-06
-7.99748e-06
-6.50698e-06
6.50655e-06
7.05919e-06
5.34283e-06
-5.30469e-06
-7.04829e-06
7.02554e-06
-5.95706e-06
6.09954e-06
7.04341e-06
-7.03726e-06
-6.15104e-09
8.50627e-09
7.05081e-06
-7.13321e-06
5.36782e-06
-5.38455e-06
-7.04634e-06
1.17771e-08
2.6531e-06
7.0636e-06
-7.05502e-06
-8.58316e-09
-7.05901e-06
7.04374e-06
-7.03787e-06
-5.87447e-09
-7.04254e-06
-7.03275e-09
7.02769e-06
-7.00616e-06
-5.38793e-06
6.47675e-06
7.03768e-06
-7.03535e-06
-2.32265e-09
-1.24096e-08
7.03021e-06
-5.37746e-06
4.66022e-06
-5.05093e-06
3.90702e-07
-8.66746e-06
8.66746e-06
7.05585e-06
7.05723e-06
-1.78663e-08
1.17878e-08
-7.05533e-06
7.07971e-06
-2.43839e-08
7.04162e-06
-7.03573e-06
-5.88507e-09
-5.84355e-06
5.56574e-06
2.16762e-08
7.03798e-06
-7.05591e-06
1.90244e-08
7.03688e-06
-7.03529e-06
7.05049e-06
-7.04104e-06
-5.40323e-06
-7.05005e-06
2.35053e-08
7.02655e-06
-5.41126e-06
-1.51817e-08
5.28156e-06
-5.32191e-06
4.03499e-08
7.03239e-06
-7.03832e-06
5.92718e-09
1.30042e-07
-7.04994e-06
7.03827e-06
1.16715e-08
7.04523e-06
-5.16546e-06
-5.12887e-06
-8.67664e-08
7.05448e-06
-7.05448e-06
-3.62283e-08
5.35944e-06
-7.05063e-06
7.04031e-06
-7.03443e-06
-5.87236e-09
7.05349e-06
-3.92497e-08
-7.04455e-06
-5.24371e-06
-6.55248e-07
-5.37496e-06
4.21448e-06
-4.70733e-06
4.92847e-07
-1.05582e-06
-4.55113e-06
5.60695e-06
7.02742e-06
-7.00883e-06
4.55262e-06
-5.31386e-06
-1.51485e-08
-7.04083e-06
7.04409e-06
-7.03824e-06
-5.84181e-09
5.41166e-06
-5.43824e-06
-1.48952e-06
-9.82018e-07
2.47154e-06
-5.61392e-06
5.66081e-06
5.4312e-06
-5.35944e-06
-2.13484e-08
-5.26675e-06
5.2881e-06
-2.45963e-08
-5.22687e-06
5.25146e-06
1.76748e-08
-5.47581e-06
5.45814e-06
5.0078e-08
-5.49787e-06
5.44779e-06
2.53072e-08
-5.38807e-06
5.36276e-06
-1.06229e-08
-5.27306e-06
5.28368e-06
-1.24991e-08
-5.26867e-06
5.28117e-06
3.17277e-06
-2.13757e-06
-1.03521e-06
4.67859e-06
3.42397e-08
7.02937e-06
5.15816e-06
-5.18641e-06
2.8254e-08
1.65668e-08
-7.04132e-06
7.02476e-06
7.05951e-06
-7.05951e-06
6.96603e-06
-1.7785e-09
-6.96425e-06
-2.33847e-08
-7.02491e-06
7.03979e-06
-7.03367e-06
-6.12688e-09
-4.37527e-06
-5.74528e-06
-1.31561e-07
4.61329e-06
8.95574e-07
7.05385e-06
-7.04442e-06
-9.42656e-09
-5.36954e-06
5.57882e-06
2.33257e-08
7.03492e-06
-3.86954e-06
-2.42953e-06
5.15922e-08
5.05476e-06
-5.10636e-06
-3.60924e-06
-6.10041e-07
-1.21092e-06
-7.50431e-07
1.96135e-06
5.29552e-06
5.29639e-06
5.5282e-06
5.52818e-06
5.48979e-06
5.41996e-06
-2.46464e-08
-5.31046e-06
5.33511e-06
5.31289e-06
-6.51952e-09
-2.09318e-06
7.04205e-06
-7.02549e-06
-1.73771e-07
5.66412e-06
-7.06353e-06
-4.82268e-06
5.96101e-06
6.95659e-06
6.2206e-09
-6.96281e-06
7.06874e-06
-1.42629e-08
-7.05359e-06
2.52548e-08
7.02833e-06
-5.31972e-06
-5.33325e-06
5.33286e-06
-5.35751e-06
-4.85378e-06
5.86514e-06
-1.01136e-06
-1.25806e-08
-7.03747e-06
3.67547e-06
-4.58606e-06
1.163e-08
-7.04893e-06
-7.04065e-06
-1.8732e-06
-2.74933e-06
-7.02802e-06
-1.33017e-08
5.39608e-06
1.68325e-06
4.1019e-06
7.03298e-06
-7.02757e-06
-5.41397e-09
5.36224e-06
-3.55216e-06
-1.81007e-06
-2.55253e-06
1.34161e-06
-2.95816e-06
6.40226e-06
-2.56566e-06
5.33387e-06
-2.76822e-06
2.12268e-09
7.05022e-06
-7.00206e-06
7.03787e-06
-7.04198e-06
4.11111e-09
-3.98658e-06
1.7009e-06
2.28568e-06
-2.35402e-08
-5.30889e-06
5.33244e-06
7.37236e-06
-3.26511e-06
-4.10725e-06
5.28287e-09
6.96075e-06
-1.53211e-06
-2.45447e-06
-5.14383e-06
5.19542e-06
4.38751e-06
2.91077e-07
-5.11776e-06
-1.07982e-08
-5.31648e-06
5.32728e-06
5.49254e-06
-5.32209e-06
-3.27064e-06
-1.23933e-06
4.50997e-06
-7.0271e-06
7.02915e-06
-2.04876e-09
-5.19608e-06
5.27055e-06
7.03492e-06
-7.03948e-06
-4.70278e-06
-1.28661e-07
-7.08714e-06
7.06032e-06
-3.66967e-06
5.31789e-09
7.03844e-06
6.14006e-06
-3.39345e-06
-2.74661e-06
5.19857e-06
-9.84085e-07
5.80571e-06
-7.50948e-07
5.32425e-06
-5.34779e-06
7.0253e-06
-7.02567e-06
3.7155e-10
5.33066e-06
-5.34146e-06
6.46294e-09
-7.02174e-06
7.01528e-06
-2.96238e-06
-7.07293e-07
1.19885e-08
-5.39992e-06
-7.04153e-06