/*--------------------------------*- C++ -*----------------------------------*\
  =========                 |
  \\      /  F ield         | OpenFOAM: The Open Source CFD Toolbox
   \\    /   O peration     | Website:  https://openfoam.org
    \\  /    A nd           | Version:  12
     \\/     M anipulation  |
\*---------------------------------------------------------------------------*/
FoamFile
{
    format      ascii;
    class       volVectorField;
    location    "0.25";
    object      U;
}
// * * * * * * * * * * * * * * * * * * * * * * * * * * * * * * * * * * * * * //

dimensions      [0 1 -1 0 0 0 0];

internalField   nonuniform List<vector> 
4428
(
(0.00190178 0.000720987 1.01427e-16)
(-0.00192638 0.000793715 -9.03815e-17)
(-0.00173492 0.000794407 0)
(-0.00181119 0.000762489 0)
(0.00174433 0.00144097 8.16379e-17)
(0.0017938 0.0014734 3.20892e-21)
(-0.00173044 0.000982507 0)
(-0.00194326 0.000693907 1.46408e-16)
(0.00185881 0.00075413 -2.49062e-16)
(0.00191486 0.000561826 9.95361e-17)
(-0.00175849 0.000615636 -1.73327e-16)
(0.00178817 0.000740424 -1.7686e-16)
(-0.00199113 0.000429731 -2.03655e-16)
(-0.000627215 0.00223834 -9.5814e-17)
(0.00187227 0.00072869 0)
(0.0017045 0.000630666 0)
(0.00192418 0.000690125 0)
(-0.00175988 0.000613415 0)
(-0.00200375 0.000428384 0)
(0.00189091 0.000733069 0)
(0.000674789 0.000553093 -4.48032e-16)
(-0.00191685 0.000736107 -1.77699e-16)
(-0.00181222 0.000767397 0)
(-0.00196236 0.000678215 0)
(-0.00190794 0.000727574 2.26613e-17)
(-0.00181312 0.000676526 0)
(-0.001829 0.000959176 1.03355e-16)
(0.00183332 0.000606037 2.078e-16)
(0.00170844 0.000839231 0)
(-0.00201084 0.000473666 0)
(0.00185562 0.000469025 0)
(-0.00193949 0.000735326 -1.84201e-16)
(0.00189154 0.000601367 -9.00181e-17)
(-0.00196535 0.00094971 -2.77416e-16)
(-8.15455e-06 0.00258532 4.69762e-17)
(-0.00193555 0.000752695 1.99859e-16)
(-0.0018931 0.000947122 -4.43622e-21)
(0.00176192 0.00237522 1.2704e-17)
(-0.000293676 0.00223825 -2.62228e-17)
(-0.00181492 0.000794113 0)
(0.00190128 0.000684952 0)
(0.00174289 0.000566675 0)
(0.00182107 0.000622039 9.24305e-17)
(-0.00197325 0.000638374 1.66055e-16)
(0.00190069 0.000610721 0)
(0.00155493 0.000579099 0)
(0.00182391 0.00173832 -9.97816e-17)
(-0.00181208 0.00087317 2.0314e-16)
(-0.00183613 0.00076511 2.24456e-16)
(-0.00189366 0.000829727 0)
(0.00189623 0.000789159 0)
(0.00170901 0.00080683 1.8812e-16)
(0.0019307 0.000551959 -9.1317e-17)
(0.00173237 0.000825755 0)
(0.00176581 0.000742674 -1.39782e-17)
(0.00113355 0.000546549 0)
(0.00168113 0.00079455 -9.29912e-17)
(-0.00186062 0.000615644 0)
(0.00158327 0.00169518 1.82957e-16)
(0.00185414 0.000642764 -1.82008e-16)
(0.00193823 0.000746224 1.67094e-16)
(-0.00193279 0.000617923 0)
(0.0016923 0.000676017 2.79948e-16)
(-0.00193488 0.000731606 9.26967e-17)
(-0.00193143 0.00075417 0)
(0.00178057 0.000783038 0)
(-0.00197367 0.000650002 1.73155e-16)
(-0.00182626 0.000777485 -1.85817e-16)
(0.00183693 0.000657237 -1.82183e-16)
(-0.00186498 0.000811621 -3.61903e-16)
(-0.0019811 0.000623084 -9.16116e-17)
(0.00186991 0.000849498 2.12649e-16)
(0.0020175 0.000875243 5.80493e-17)
(-0.0018001 0.00074752 4.46946e-17)
(0.00189521 0.000661037 1.96646e-16)
(-3.31414e-05 0.00256223 -1.83291e-16)
(0.00192765 0.000880176 0)
(0.00198417 0.000765658 0)
(-0.00174656 0.000988852 -1.18142e-16)
(0.0013645 0.000651491 -4.37365e-21)
(0.00169308 0.000866345 -1.97536e-16)
(-0.00196805 0.000625175 0)
(0.00183165 0.00087292 -1.81061e-16)
(0.00183816 0.000757058 -1.72063e-16)
(0.00192711 0.000686558 3.183e-16)
(-0.00209573 0.000677752 -2.54684e-16)
(-0.000239384 0.0028689 1.1514e-16)
(-0.00196507 0.000719065 0)
(-0.00192999 0.000739076 -9.60325e-17)
(0.00176709 0.000775104 2.04739e-17)
(0.00189652 0.000573446 8.36638e-17)
(0.00194503 0.000696323 -1.59366e-16)
(-0.00194671 0.000775208 0)
(-0.00191792 0.000712997 0)
(-0.00193082 0.000754983 9.81678e-17)
(-0.00187833 0.000780353 1.67117e-16)
(0.00189817 0.000755406 1.13528e-16)
(-0.00194563 0.000738502 -1.199e-16)
(-0.00198327 0.000618077 9.28691e-17)
(0.00178977 0.00094954 0)
(0.00180183 0.000814245 -2.25138e-17)
(0.00185983 0.000727218 0)
(0.00190581 0.000673503 0)
(0.00172426 0.000644433 -1.87984e-16)
(0.00166161 0.000772404 -1.037e-16)
(0.00175652 0.000849903 2.49111e-21)
(0.00184929 0.000761155 1.90323e-16)
(-0.0018967 0.00090234 -1.22453e-16)
(0.00189508 0.00075576 -1.2082e-16)
(0.00182262 0.000886396 0)
(0.00185345 0.000620222 1.64693e-16)
(0.00186486 0.000717114 -1.94801e-16)
(-0.00179838 0.000737887 2.6551e-21)
(0.00177607 0.000673252 1.65962e-16)
(-0.00106742 0.000672398 1.15541e-16)
(-0.00197437 0.000605792 1.8023e-16)
(-0.000433723 0.0024893 0)
(0.000768022 0.000597728 5.24743e-17)
(-0.00199837 0.000668672 8.87638e-17)
(0.00198517 0.000765282 -1.12858e-16)
(0.00196312 0.00076585 2.11527e-16)
(-0.0017486 0.000995966 2.41273e-16)
(0.00129007 0.0021107 -1.96892e-16)
(0.00187553 0.000607036 -3.03614e-16)
(-1.07169e-05 0.00258569 1.78756e-16)
(-0.00193606 0.00073128 0)
(-0.00196388 0.000665789 -2.72253e-16)
(0.00178759 0.000739579 9.95076e-17)
(-0.00193236 0.000786532 -3.04096e-16)
(-0.00193327 0.000751727 9.66754e-17)
(-0.00197932 0.000628286 -1.8713e-16)
(-0.00189651 0.000780357 0)
(0.00190745 0.000761407 2.24123e-16)
(0.00183252 0.0006828 0)
(0.00185778 0.000725832 0)
(0.00198513 0.000857635 6.5418e-21)
(0.00194004 0.000809132 -2.43665e-16)
(-0.00197027 0.00061347 -1.82386e-16)
(-0.00193747 0.000750759 -1.83548e-16)
(-0.00191936 0.000777963 1.43947e-16)
(-0.00190469 0.000912645 -1.23704e-16)
(-0.00194014 0.000701449 -9.67471e-17)
(0.00182876 0.000731807 0)
(0.0018382 0.000751257 -1.99426e-16)
(0.00192676 0.000723553 0)
(0.00181408 0.000695659 9.67634e-17)
(0.00194339 0.000866489 1.28472e-16)
(-5.11928e-05 0.00183658 -9.13936e-17)
(0.00203061 0.000572041 2.88884e-16)
(1.42793e-06 0.00257904 4.54401e-17)
(-0.0019348 0.000731062 -1.9951e-16)
(-0.00126233 0.000558737 1.00283e-16)
(0.00181072 0.000602365 -9.60082e-21)
(0.0020155 0.000699487 -2.4862e-16)
(-0.00193197 0.000751463 2.91591e-16)
(0.00196496 0.000736235 0)
(0.00177272 0.00119731 -1.77125e-16)
(0.00191391 0.00057476 -9.48471e-17)
(0.00186799 0.00069159 -1.78765e-16)
(-0.0019514 0.000641937 -9.12332e-17)
(-0.00192409 0.000798749 1.95445e-16)
(0.00187861 0.000741637 0)
(0.00201092 0.000635601 0)
(-0.000678483 0.000303394 -2.17177e-16)
(-0.00204978 0.000848366 1.19562e-16)
(-0.00197184 0.000619076 0)
(-0.00192932 0.000707362 0)
(0.00200761 0.000675087 0)
(-0.00192683 0.000748024 1.90533e-21)
(-0.00194754 0.000832368 9.36775e-17)
(-0.00197806 0.000653847 -9.37985e-17)
(0.00194156 0.000766938 3.95666e-21)
(-0.00194678 0.000735732 0)
(0.00175971 0.000738736 0)
(0.00178589 0.00231239 -1.16372e-17)
(-0.00207248 0.000861452 2.29074e-16)
(0.00194921 0.000707196 0)
(0.00171203 0.00084999 2.14587e-16)
(0.00182098 0.000763081 2.17937e-16)
(-0.00207168 0.000834974 1.14317e-16)
(-0.000220883 0.00260678 -7.0919e-21)
(-0.00186629 0.000764011 1.75076e-16)
(-0.00194935 0.00068432 1.91949e-16)
(0.00177838 0.000687194 0)
(-0.00193396 0.000731428 3.00569e-16)
(-0.00192975 0.000887298 -9.5216e-17)
(0.00191816 0.000741586 0)
(-0.00192939 0.000750319 0)
(0.00163072 0.00071394 3.43567e-16)
(0.00187918 0.000829904 0)
(0.0018693 0.00068387 0)
(0.00195553 0.00092731 2.58466e-17)
(0.00190136 0.0006786 0)
(0.00193507 0.000799236 -3.67868e-16)
(-0.00188204 0.000877568 0)
(-0.00187222 0.000865256 -1.80865e-16)
(-0.00187211 0.000862911 2.70921e-16)
(-0.00184365 0.000847831 8.88767e-17)
(0.00262899 0.0015217 1.48755e-16)
(-0.000582848 0.00275946 0)
(0.00190763 0.000868144 2.13762e-16)
(-0.00194755 0.000705329 -1.94079e-16)
(0.00149801 0.000801815 -1.90307e-16)
(-0.0019583 0.000639577 0)
(0.00173972 0.000668372 -1.7663e-16)
(0.00188667 0.000662892 -2.98056e-18)
(-0.00192297 0.000749541 9.32573e-17)
(-0.000426872 0.00298722 -1.77905e-16)
(-0.000927291 0.00258797 1.11839e-17)
(0.00127986 0.000673678 0)
(0.00192779 0.000824435 0)
(0.00206355 0.000743462 0)
(0.00192284 0.000808513 5.94997e-21)
(-0.00194437 0.000685428 0)
(0.00187701 0.000717284 0)
(-0.00189439 0.000858081 -1.40087e-16)
(-0.00187381 0.000845647 1.83783e-16)
(3.2478e-05 0.00258237 -1.8469e-16)
(-0.00181894 0.000685489 1.99297e-16)
(-0.00186406 0.000857821 -4.53589e-17)
(0.00192383 0.000798262 1.95363e-16)
(0.00200125 0.000702203 -6.15108e-17)
(-0.00191905 0.000746335 1.85468e-16)
(0.00195694 0.000841341 0)
(-0.00188136 0.00086395 0)
(-0.00193393 0.000732448 0)
(-0.00196448 0.000746645 -1.08725e-16)
(0.00186912 0.000674341 -1.93042e-16)
(0.00178636 0.000745944 3.73428e-21)
(-0.00192881 0.000750293 0)
(-0.00193578 0.000703667 9.83233e-17)
(-0.00118812 0.00235769 0)
(0.00162534 0.000962398 0)
(0.000281849 0.00284595 8.61733e-17)
(0.00181932 0.000727474 5.74623e-17)
(-0.00189185 0.000837934 0)
(-0.00188238 0.000853113 0)
(-0.00188104 0.00084788 1.88216e-16)
(-0.00188888 0.000845197 -1.86172e-16)
(-0.00195472 0.000650001 2.97767e-16)
(-0.000190692 0.000471999 5.13887e-17)
(-0.00195832 0.000747628 -5.90057e-17)
(-0.00186153 0.000846639 6.23695e-17)
(0.00188961 0.000740729 2.23734e-17)
(-0.00194117 0.000691128 -9.62577e-17)
(-0.000532217 0.00192827 -1.01155e-16)
(-0.00191996 0.00091557 1.89325e-16)
(-0.0019429 0.000693667 1.92814e-16)
(0.00223757 0.00149656 0)
(-0.000217211 0.00194966 0)
(-0.0020214 0.000839296 6.11687e-21)
(0.00183505 0.000730476 2.04394e-16)
(0.00194515 0.000789715 -1.05648e-16)
(-0.00187738 0.000846108 1.81887e-16)
(0.00169052 0.000630678 -1.31316e-16)
(0.000329857 0.000225337 1.07918e-16)
(-0.00188363 0.00084844 -3.65585e-16)
(4.18792e-05 0.00256527 0)
(-0.00219924 0.000802549 -3.66783e-17)
(-0.00189568 0.000845179 -2.11761e-16)
(-0.00188895 0.000845924 1.90018e-16)
(-0.000668279 0.000339272 2.17218e-16)
(-0.00193381 0.000708186 0)
(0.00202294 0.000450473 1.23012e-16)
(-0.00188097 0.000843594 -9.37841e-17)
(-0.00192185 0.000747046 -1.00072e-16)
(0.0019154 0.000694441 0)
(-0.00188477 0.000847465 0)
(-0.00130175 0.00285247 1.37275e-16)
(-0.00199494 0.000673574 -1.83736e-16)
(0.00187288 0.000647628 0)
(0.00195883 0.000879879 2.37177e-16)
(0.00187444 0.000746877 1.23123e-17)
(-0.000397416 0.00208353 2.58439e-16)
(-0.0019353 0.000731594 0)
(0.00182015 0.000767998 1.98131e-16)
(0.00189058 0.000725504 -2.6356e-16)
(-0.00193762 0.000702553 1.94296e-16)
(0.00198586 0.000932773 0)
(0.000316823 0.000222506 -1.10465e-16)
(-0.00207481 0.000868562 -2.34496e-22)
(-0.000355136 0.00266144 9.63398e-17)
(0.00188224 0.000700803 0)
(-0.0019512 0.000658263 -2.99174e-16)
(0.00173864 0.000989534 3.93343e-16)
(0.00170969 0.00100485 -9.12433e-17)
(0.00189977 0.000742883 -1.32949e-17)
(0.00190004 0.000639283 -1.26246e-16)
(0.00189874 0.000749194 1.94436e-16)
(0.00192263 0.000706325 0)
(-0.00212315 0.000654555 1.43577e-16)
(-0.00200321 0.000651703 -1.8709e-16)
(-0.00189632 0.000833718 -7.47192e-19)
(0.00180242 0.000855931 0)
(0.00176492 0.000755838 2.1467e-16)
(0.000607241 0.00022643 2.31985e-16)
(-0.00192344 0.000717913 1.95533e-16)
(-0.00187928 0.000842 2.07962e-16)
(-0.00192083 0.000861021 0)
(-0.00118913 0.00278514 1.9676e-16)
(-0.00194081 0.000707042 5.9193e-21)
(0.00179037 0.000659387 1.14693e-16)
(-0.0019319 0.000712018 0)
(-0.0018908 0.000843773 -1.18782e-17)
(-0.00188995 0.000849594 0)
(-0.00188908 0.000847389 -1.85911e-16)
(-0.00194785 0.000750489 0)
(-0.000252691 0.00283926 -1.1959e-16)
(0.00129166 0.000710526 -3.44557e-16)
(0.00188246 0.000933364 1.25596e-16)
(-0.00193748 0.000708149 9.79705e-17)
(0.00185062 0.000729851 0)
(0.00197852 0.000916979 -1.26565e-16)
(-0.000327742 0.0028204 -1.90452e-16)
(0.00116747 0.000392809 -2.23906e-16)
(0.00187547 0.000768005 0)
(0.00192906 0.000840736 0)
(0.00185957 0.000790821 -1.87615e-16)
(-0.00194856 0.00066811 0)
(-0.00192422 0.000734327 1.96569e-16)
(-0.000474736 0.00310299 -6.17599e-18)
(-0.00204063 0.000858052 -1.0149e-16)
(-0.00179234 0.000689636 6.10873e-17)
(0.00183942 0.000712322 3.89321e-16)
(-0.001373 0.00423876 -1.46074e-16)
(0.00314795 0.00123849 -1.97874e-16)
(0.00178683 0.000792387 -2.12583e-16)
(-0.0019128 0.000737634 9.643e-17)
(-0.00191263 0.000885349 -1.21773e-17)
(-0.00187431 0.000855435 -1.89493e-16)
(0.00187158 0.000713545 2.09788e-16)
(-0.00191583 0.000731774 0)
(-0.00193266 0.000713786 9.90843e-17)
(-0.0021962 0.000796528 1.50957e-16)
(-0.00194226 0.000913592 0)
(-0.0019144 0.000865294 0)
(0.00199714 0.000904492 -1.23282e-16)
(0.00177856 0.000692695 0)
(-0.00192902 0.000734319 0)
(0.00179943 0.000667311 0)
(-0.00189255 0.000849058 1.18323e-17)
(-0.0019127 0.000841992 7.54732e-19)
(0.00174969 0.000596673 0)
(0.00189587 0.000722643 1.92889e-16)
(-4.39967e-05 0.00258092 0)
(0.00186149 0.000632468 0)
(-0.00193871 0.000711011 4.92535e-17)
(-0.00195112 0.000700452 -3.01482e-16)
(0.000201921 0.00115339 0)
(-0.00191962 0.000736044 -1.93417e-16)
(-0.00198441 0.000446254 9.23815e-17)
(-0.00198053 0.00078339 -4.25924e-21)
(-0.00206997 0.000705158 -2.43395e-16)
(-0.00219673 0.000781149 1.51159e-16)
(-0.00189382 0.000884568 0)
(-0.0019527 0.000677543 2.02114e-16)
(-0.00191741 0.000736677 1.00295e-16)
(0.00188557 0.000710743 0)
(-0.00189992 0.000664163 1.62545e-16)
(-0.00192374 0.000723306 -2.68738e-16)
(2.98263e-05 0.00251259 0)
(-0.00188538 0.000841841 -2.80435e-16)
(-0.00195361 0.000786983 0)
(-0.00193878 0.000722603 0)
(0.00192051 0.000714543 2.03117e-16)
(-0.0019313 0.000706806 1.01384e-16)
(0.00167868 0.000615234 2.14781e-16)
(0.00192261 0.000769888 -2.03931e-16)
(-0.00136077 0.000655252 0)
(-0.00205032 0.000691035 0)
(-0.00192036 0.000736724 0)
(0.00188113 0.000730248 -2.12708e-16)
(0.00189002 0.000795741 0)
(0.00189202 0.000725349 0)
(-0.00205804 0.000893068 -2.99362e-16)
(0.000248339 0.00255266 2.17983e-16)
(-0.0019034 0.000877855 1.92278e-16)
(0.00193411 0.000598896 -2.15588e-16)
(-1.90438e-05 0.00134397 -6.19431e-17)
(-0.00193049 0.000752925 0)
(-0.00192744 0.000812971 2.99754e-16)
(-0.00184867 0.000861611 -1.80339e-16)
(0.000177667 0.0019652 1.08286e-16)
(0.00197829 0.000426759 0)
(0.00205687 0.000551221 1.14707e-16)
(0.00181683 0.000771663 1.778e-16)
(-0.00039287 0.000299264 2.10734e-16)
(-0.0019222 0.000717534 -9.03927e-17)
(0.00189769 0.000748884 0)
(0.00117767 0.00044116 0)
(0.00161188 0.000502387 3.86488e-16)
(-0.00192251 0.000738796 0)
(0.00199387 0.00065895 -1.07229e-16)
(-0.0020476 0.000543661 1.26093e-16)
(-0.00193419 0.000736249 9.58116e-17)
(0.00183235 0.00073546 -1.95166e-16)
(-0.00214887 0.000811241 -1.35979e-16)
(-0.00179289 0.00074735 1.84898e-16)
(-0.0021053 0.00096897 1.01007e-16)
(-0.00143676 0.000560201 -1.08942e-16)
(-0.00193963 0.000732467 0)
(-0.00193071 0.000734549 0)
(-0.000110871 0.000966967 0)
(-1.41042e-05 0.00250753 -2.50979e-16)
(-0.00206719 0.000736142 0)
(-0.00195271 0.000953315 -8.72299e-17)
(0.00186833 0.000730778 3.76162e-16)
(0.00179687 0.000760896 -1.11175e-16)
(0.00186972 0.000675088 3.79527e-16)
(0.00189446 0.000800958 -5.49151e-17)
(0.00188352 0.000715674 -5.54942e-21)
(-0.00191397 0.000770539 -4.91287e-17)
(-0.00191997 0.000743979 -9.63663e-17)
(-0.000156203 0.00296586 5.97385e-18)
(-0.00192624 0.000741077 -1.95295e-16)
(-0.00191388 0.000799355 -5.15028e-17)
(0.0018008 0.000780327 0)
(-0.00192973 0.000740227 -9.75865e-17)
(-0.00203213 0.000746259 -3.58918e-16)
(-0.00186792 0.000840109 -1.39394e-17)
(-0.00194049 0.000726303 0)
(-0.00195591 0.000641368 4.83494e-17)
(-0.00192991 0.000714731 -9.87663e-17)
(0.00205026 0.000903593 -2.08722e-16)
(-0.00191588 0.000758712 -9.94712e-17)
(0.000253006 0.00283944 6.96542e-18)
(0.00183926 0.000672305 2.4431e-17)
(-5.48199e-05 0.00281739 -1.98858e-16)
(-0.00213876 0.000863349 2.82349e-16)
(-0.00186508 0.000629374 -3.98527e-16)
(0.00188277 0.000726831 1.03053e-16)
(-0.00214278 0.000863914 1.25935e-16)
(0.00028865 0.00147791 8.11328e-17)
(-0.00190955 0.000756565 1.97979e-16)
(0.00182717 0.000630947 1.7667e-16)
(-2.0904e-05 0.0027652 0)
(-5.39754e-05 0.00248289 -2.83923e-16)
(-0.00191717 0.000791549 -1.57227e-16)
(0.00185272 0.00063275 -5.19582e-17)
(-2.16768e-05 0.00275795 7.90266e-19)
(0.00225318 0.00089533 9.76701e-17)
(-0.00177797 0.000708557 2.95295e-16)
(-0.00193561 0.000735314 -5.09882e-17)
(-0.0019577 0.000701555 0)
(-0.00201459 0.00074752 2.29029e-16)
(0.00185797 0.000750073 -2.02295e-16)
(-0.00192021 0.000746129 -9.68008e-17)
(0.00186179 0.000729909 0)
(-4.49218e-06 0.00274246 -2.01871e-16)
(-0.00201829 0.000779471 1.20768e-16)
(0.00215819 0.00193847 -3.66323e-16)
(0.00190662 0.000724796 0)
(-1.22779e-05 0.00274301 0)
(0.00195817 0.000786271 5.9561e-21)
(7.80727e-06 0.00273529 -2.02109e-16)
(4.31342e-06 0.00274072 4.01899e-16)
(-0.00191415 0.000750613 4.98489e-17)
(-0.000170326 0.00282309 1.97706e-16)
(-7.33849e-06 0.00273304 0)
(-1.77418e-05 0.00274606 2.01154e-16)
(-0.00191615 0.000746921 0)
(0.00219762 0.00124321 0)
(8.66498e-06 0.00273883 0)
(-4.29788e-06 0.00273838 -2.01437e-16)
(-0.00190915 0.000781713 0)
(-9.65084e-06 0.00274055 4.05269e-16)
(-0.00193127 0.000730955 0)
(-4.07001e-06 0.00274009 -2.02417e-16)
(-0.00191752 0.000746622 -2.93181e-16)
(-4.88096e-06 0.00273129 0)
(-0.0018985 0.000786405 9.67021e-17)
(-0.000861227 0.00313745 -4.71361e-17)
(0.00199861 0.000881841 2.50255e-16)
(0.00202447 0.000762318 0)
(5.47628e-07 0.00273692 1.45275e-20)
(-1.06697e-05 0.00274185 -1.99387e-16)
(-0.00194356 0.000651897 -8.51742e-17)
(0.0018353 0.000820192 -2.05742e-16)
(0.00168229 0.000680178 0)
(0.00187248 0.000716643 3.10261e-16)
(-2.06917e-06 0.00273885 2.01997e-16)
(-0.00190872 0.000750211 0)
(-6.73027e-05 0.00276942 2.00561e-16)
(-1.90184e-06 0.0027328 0)
(-4.74904e-06 0.00273691 -2.04878e-16)
(-0.00192463 0.000750081 0)
(0.00188726 0.0007887 1.95265e-16)
(-0.00193069 0.000738474 2.68349e-21)
(7.41089e-07 0.00273203 2.02883e-16)
(0.00191332 0.000700229 -4.19347e-16)
(0.000276615 0.00164404 0)
(-9.8057e-06 0.0027416 0)
(0.00212246 0.000980209 1.46623e-16)
(0.00185934 0.000653043 0)
(-0.000215465 0.00293727 0)
(-0.00192725 0.00072984 -3.52288e-16)
(-7.34589e-05 0.00280509 0)
(-0.00191939 0.000745386 9.75564e-17)
(-0.00162832 0.00138936 -5.2537e-17)
(-0.00191052 0.00078238 2.0111e-16)
(6.70628e-07 0.00273288 -4.0462e-16)
(-0.00196379 0.000710475 5.41568e-17)
(-0.00189667 0.000785951 1.92962e-16)
(-3.37613e-06 0.00273566 0)
(-6.78908e-06 0.00273159 -1.98247e-16)
(0.00178384 0.000612607 0)
(8.46795e-07 0.00273747 -2.04204e-16)
(1.56812e-06 0.00273593 0)
(-0.000127983 0.00284458 2.01273e-16)
(1.39394e-05 0.00249209 -2.27202e-16)
(-0.00183798 0.000771515 1.17405e-16)
(-3.97196e-05 0.00277433 9.81719e-20)
(0.00136069 0.000400456 0)
(-0.00195824 0.000719463 7.99844e-17)
(-0.00184353 0.0007931 4.6885e-17)
(5.66783e-06 0.00273046 4.0501e-16)
(-1.08645e-05 0.00274051 2.01599e-16)
(-0.00196166 0.00074527 -4.65995e-16)
(1.72767e-06 0.00273389 2.02681e-16)
(0.00174585 0.000569585 6.77128e-21)
(-1.38701e-05 0.00273517 2.00599e-16)
(-0.00193582 0.000735237 0)
(-0.00190867 0.000765614 5.12175e-17)
(-1.52288e-06 0.00273613 -1.45944e-20)
(0.0018597 0.000903063 2.10079e-16)
(-0.00192698 0.000750226 -1.0284e-16)
(-0.00189971 0.000781591 -8.98988e-17)
(-6.75939e-06 0.0027395 -2.01522e-16)
(0.00187189 0.000733294 3.51591e-18)
(-5.09983e-07 0.00273726 -1.45985e-20)
(-0.00193959 0.000733204 4.8086e-17)
(8.86147e-06 0.00273243 0)
(-0.00193011 0.000729945 0)
(-1.58423e-05 0.00273948 -2.01464e-16)
(1.37656e-06 0.00273571 2.02263e-16)
(0.0018728 0.000775654 -2.45277e-17)
(-0.0019698 0.000671808 2.19718e-16)
(-1.42427e-05 0.00273554 1.99769e-16)
(3.43753e-06 0.00273216 0)
(-0.00191337 0.000775924 0)
(-0.00190415 0.000783126 1.53401e-16)
(-0.00196398 0.000630044 0)
(-9.74534e-05 0.00169689 -1.08308e-16)
(-5.26046e-07 0.002737 2.02707e-16)
(-0.00189977 0.000780286 -1.45371e-16)
(-0.00191716 0.000744231 0)
(-0.00190676 0.000726504 5.30122e-17)
(-2.57586e-05 0.00274509 1.97004e-16)
(1.79048e-07 0.00273307 -1.46721e-20)
(-0.00192012 0.000734467 -5.14122e-17)
(0.00111231 0.000133978 -2.18992e-16)
(-2.43455e-05 0.00275103 -2.00423e-16)
(-7.70428e-06 0.00274004 2.02102e-16)
(3.92844e-06 0.00273317 2.02979e-16)
(-2.45196e-07 0.00274163 -2.00153e-16)
(0.00228348 0.00115594 -1.92045e-16)
(-1.60579e-05 0.00273563 -2.01106e-16)
(-0.0019333 0.000727315 0)
(-0.0018765 0.000676625 0)
(0.00180354 0.00068672 0)
(-4.17629e-06 0.00273288 -2.03568e-16)
(-0.00189728 0.000785719 2.4814e-16)
(0.00185164 0.000690581 -1.57149e-16)
(-0.00183938 0.00074408 2.71351e-16)
(-0.00191994 0.000744504 -1.96914e-16)
(-0.00192271 0.000742731 -1.01262e-16)
(-0.00207198 0.00097555 -1.00453e-16)
(-7.67558e-06 0.00273497 -4.05788e-16)
(7.45998e-06 0.00273296 8.46294e-20)
(-0.00193896 0.000794302 -5.8004e-17)
(-0.0019238 0.000772678 4.59954e-17)
(-0.00192315 0.000747927 -5.05262e-17)
(1.09155e-05 0.0027363 -2.02614e-16)
(2.35849e-06 0.00273293 4.10221e-16)
(-1.32848e-05 0.00273586 -2.02959e-16)
(2.361e-06 0.00273586 -7.95357e-19)
(-0.00191773 0.000761424 4.9129e-17)
(-9.2422e-06 0.00273437 0)
(1.29972e-05 0.00273494 -2.03781e-16)
(8.94347e-06 0.00273197 2.02748e-16)
(1.12059e-05 0.00273644 3.50539e-20)
(-0.00192596 0.000721698 1.02068e-16)
(-1.54467e-05 0.00275109 0)
(-0.00192612 0.000732516 -2.00614e-16)
(-0.00196187 0.000711944 0)
(0.00188416 0.000721841 -2.22457e-16)
(-1.0262e-06 0.00273468 -1.57903e-18)
(0.00181063 0.000719474 1.97901e-16)
(1.71154e-06 0.00273551 -1.45322e-20)
(-0.000168039 0.00280683 0)
(-0.000111521 0.00277091 -1.99269e-16)
(-0.00192564 0.000735247 0)
(-0.00194166 0.000732591 -9.86552e-17)
(1.85839e-05 0.00273172 0)
(-0.00190988 0.000741093 -2.14071e-16)
(-0.00192073 0.000753076 -1.06353e-16)
(0.00187443 0.000744878 2.13739e-16)
(1.05824e-06 0.00273288 -2.03081e-16)
(-1.54845e-05 0.00273596 -2.03157e-16)
(-0.00192951 0.000771108 5.55531e-17)
(-2.92692e-06 0.00273585 -2.00305e-16)
(-0.00190222 0.000723069 3.11583e-16)
(-1.24829e-05 0.00273385 -2.02288e-16)
(3.91806e-06 0.00273534 -1.45601e-20)
(-0.00189952 0.000798095 -2.36556e-16)
(-1.69091e-05 0.00273536 2.00627e-16)
(0.00188783 0.000714249 0)
(-0.00191807 0.000750054 -5.02506e-17)
(-1.01551e-06 0.00273409 3.18888e-18)
(-0.00192928 0.000721636 1.00774e-16)
(-4.52133e-07 0.00273341 -1.60071e-18)
(-0.00191865 0.000736895 5.046e-17)
(-0.00181001 0.000677663 0)
(7.15866e-06 0.0027353 -1.46311e-20)
(-0.00209342 0.000882011 3.00914e-16)
(1.64576e-06 0.00273673 2.04468e-16)
(0.00173019 0.000886937 -5.8777e-17)
(-0.00182366 0.000820064 1.95204e-16)
(-5.99748e-07 0.00273503 2.04613e-16)
(0.00139869 0.00054902 2.15025e-16)
(-3.5747e-06 0.00273506 2.03318e-16)
(2.09189e-06 0.00273586 3.17266e-18)
(0.00160373 0.000585417 2.27231e-16)
(0.00172086 0.000600116 -2.12539e-16)
(0.00195613 0.000777517 0)
(-0.0020402 0.000831231 0)
(-1.55792e-05 0.00273525 -1.59106e-18)
(0.00178078 0.000674206 2.79968e-16)
(-1.50219e-05 0.0027339 -1.5797e-18)
(-0.00192288 0.000744023 -9.82419e-17)
(0.00174384 0.000603923 0)
(1.41872e-05 0.002734 -4.0555e-16)
(2.31305e-06 0.00273444 -4.08066e-16)
(-0.00191241 0.000770825 0)
(-0.00192545 0.000720389 0)
(1.58662e-06 0.00273655 -4.05516e-16)
(-5.47604e-05 0.00276265 0)
(-0.00191362 0.00078638 -1.95478e-16)
(-3.6804e-05 0.00275019 -4.0051e-16)
(-0.00174764 0.000629244 0)
(0.00197126 0.000643011 5.24843e-17)
(2.08964e-07 0.00273162 -1.60738e-18)
(6.19553e-06 0.00273743 2.04309e-16)
(0.00149631 0.000932118 -7.03673e-18)
(7.2699e-07 0.00273441 -2.04791e-16)
(-0.00193655 0.000712815 1.57436e-16)
(-0.00202467 0.000940347 1.38981e-16)
(-1.67415e-05 0.0027348 2.01866e-16)
(-0.00192957 0.000721028 1.45747e-16)
(-2.98237e-06 0.00273569 2.04812e-16)
(-1.55261e-05 0.00273423 -2.02604e-16)
(-1.75449e-05 0.0027344 -2.01906e-16)
(-0.00190497 0.000774594 0)
(-0.00192691 0.000723934 -4.98679e-17)
(-1.93313e-06 0.00273392 -7.98776e-19)
(1.60202e-05 0.00273494 0)
(-0.00190239 0.000771385 1.98687e-16)
(-0.00191802 0.000723976 0)
(2.47468e-06 0.00273334 -2.034e-16)
(-1.3181e-05 0.00274331 3.16229e-18)
(0.00187109 0.000727125 -2.14733e-16)
(2.45644e-06 0.00273482 -4.10849e-16)
(-0.00206556 0.000817345 3.41573e-16)
(-1.00029e-06 0.00273461 0)
(-9.03312e-07 0.00273628 2.02759e-16)
(-5.24724e-07 0.00273493 0)
(-1.3632e-07 0.00273554 2.02819e-16)
(1.98866e-06 0.0027342 -2.02306e-16)
(0.00161708 0.000625564 1.21376e-16)
(7.33867e-07 0.00273373 2.02448e-16)
(1.25549e-06 0.00273966 -1.46566e-20)
(-3.47252e-08 0.00273457 2.04801e-16)
(-1.81909e-05 0.00273494 4.04644e-16)
(-0.00192825 0.000736417 0)
(-0.00192604 0.000743031 -5.25273e-17)
(-1.58027e-05 0.00273459 0)
(-3.60741e-07 0.00273472 0)
(-1.82202e-06 0.00273363 -2.06611e-16)
(1.608e-05 0.00273578 2.03097e-16)
(1.32767e-05 0.00273602 2.03862e-16)
(-0.00192243 0.000747261 2.57695e-16)
(1.42956e-05 0.00273453 2.03294e-16)
(-1.05838e-06 0.00273599 -2.04792e-16)
(-2.62195e-06 0.0027348 0)
(-7.15796e-07 0.00273459 -1.47054e-20)
(-0.00192649 0.000742428 1.00376e-16)
(1.58981e-05 0.00273486 0)
(1.49813e-05 0.00273406 2.03435e-16)
(-6.40446e-06 0.00273992 -2.05256e-16)
(-0.00193201 0.00072081 0)
(-2.70871e-08 0.00273465 0)
(0.00188881 0.000726587 -2.1323e-16)
(-3.41681e-07 0.00273646 1.59878e-18)
(-2.66174e-07 0.00273706 -3.98536e-19)
(-1.30602e-05 0.00273234 -7.92063e-19)
(-1.75746e-05 0.00273419 1.46009e-20)
(-1.42123e-05 0.00273322 7.9271e-19)
(-0.00191525 0.000825211 -1.24095e-16)
(-1.69511e-05 0.00273301 2.03609e-16)
(9.12001e-06 0.00273337 0)
(-1.66025e-05 0.00273335 2.02162e-16)
(-1.6801e-05 0.00273387 -2.02507e-16)
(-1.771e-05 0.00273497 -2.03448e-16)
(-0.00232333 0.00190012 -3.0846e-16)
(-0.000442981 0.000549022 -3.84298e-16)
(1.63632e-05 0.00273526 -2.03713e-16)
(-1.63877e-06 0.00273561 -2.03071e-16)
(1.90951e-07 0.00273624 -2.03025e-16)
(1.46868e-05 0.00273401 2.03497e-16)
(-0.00193596 0.000730296 -2.02473e-16)
(-1.88405e-05 0.00273354 2.02139e-16)
(-1.57262e-06 0.0027351 -2.02689e-16)
(-1.24558e-05 0.00274032 -4.03165e-16)
(-1.442e-06 0.0027342 -1.60329e-18)
(1.74766e-05 0.00273406 2.02727e-16)
(0.0018742 0.000719015 2.13264e-16)
(-5.85034e-06 0.0027359 -2.02728e-16)
(1.07405e-06 0.00273458 -1.45893e-20)
(0.00199649 0.000825018 -2.63005e-16)
(-5.86252e-07 0.00273448 0)
(-1.23772e-06 0.00273456 0)
(-1.87215e-05 0.00273416 -4.06251e-16)
(-0.00192619 0.00073926 1.00716e-16)
(3.48243e-07 0.00273299 -4.00491e-19)
(-2.17322e-05 0.00273506 2.12277e-19)
(0.0018871 0.000696465 1.41756e-17)
(-1.99825e-05 0.00273629 2.03074e-16)
(1.97883e-05 0.00273517 2.03047e-16)
(1.8102e-05 0.00273476 -2.029e-16)
(4.55646e-06 0.00273444 -2.0347e-16)
(-2.12336e-05 0.00273531 1.4594e-20)
(-0.0020026 0.000716353 -2.15473e-16)
(-0.00165392 0.000644504 2.65477e-16)
(-1.82166e-06 0.00273197 -1.4674e-20)
(-1.17986e-06 0.00273548 -2.02589e-16)
(-0.00190882 0.000774769 5.11235e-17)
(1.73489e-06 0.00273354 -1.47057e-20)
(-1.95801e-05 0.00273332 8.05145e-19)
(1.96742e-05 0.00273417 -4.0604e-16)
(9.06768e-06 0.00273162 2.03832e-16)
(1.6729e-05 0.00273369 -2.0383e-16)
(1.64474e-05 0.00273428 -2.03825e-16)
(1.96433e-05 0.00273453 2.03124e-16)
(1.64091e-05 0.0027338 1.98678e-19)
(1.9496e-05 0.00273459 0)
(0.00188875 0.000714154 0)
(-1.5892e-05 0.00273474 2.04487e-16)
(-1.29208e-06 0.0027376 0)
(3.57806e-06 0.0027365 2.03736e-16)
(1.95383e-05 0.00273452 0)
(1.94564e-05 0.00273473 2.03193e-16)
(1.97067e-05 0.00273432 -9.91907e-20)
(2.03371e-06 0.00273672 1.99363e-16)
(1.77109e-05 0.00273567 0)
(-5.18373e-06 0.00273729 0)
(-1.65264e-05 0.0027368 -2.04708e-16)
(-0.00192244 0.000741899 -2.47716e-21)
(1.74021e-05 0.00273442 0)
(-4.02651e-05 0.0027813 0)
(1.70947e-05 0.00273445 0)
(-0.00187663 0.000716174 1.5717e-16)
(1.34169e-06 0.00273577 -2.02841e-16)
(-1.23169e-05 0.00274043 2.0468e-16)
(1.78759e-05 0.002736 -9.94043e-20)
(-0.00188739 0.000786403 5.56764e-17)
(-0.00191146 0.000776785 -5.08318e-17)
(1.56268e-05 0.00273555 -2.03819e-16)
(-4.73603e-06 0.00273024 0)
(-6.54491e-07 0.00273923 -2.03899e-16)
(1.5854e-05 0.00273572 1.46458e-20)
(1.96413e-05 0.00273421 -2.03659e-16)
(-1.8053e-06 0.00272817 4.05039e-16)
(0.00181573 0.000631052 -3.65594e-16)
(0.00188152 0.0007268 -4.30918e-16)
(-2.76903e-06 0.00273548 4.07249e-16)
(0.00185947 0.000734082 0)
(1.54769e-05 0.0027357 0)
(1.99628e-05 0.00273376 -3.96995e-19)
(-0.00195516 0.000773514 -1.84022e-16)
(-0.00191906 0.000783959 1.05905e-16)
(1.21833e-06 0.00273352 -1.00203e-19)
(1.56267e-05 0.00273593 2.0387e-16)
(1.65739e-06 0.00273459 -2.03129e-16)
(-0.00175486 0.00167621 1.02776e-16)
(1.48012e-05 0.00273563 7.96843e-19)
(-1.91513e-05 0.0027362 2.03301e-16)
(-1.58434e-06 0.00273825 2.04071e-16)
(-0.00219077 0.00112119 -2.01499e-16)
(1.52873e-05 0.00273647 0)
(-1.11696e-06 0.00273491 4.01572e-19)
(-4.21047e-06 0.00273742 -2.03104e-16)
(-0.00192706 0.00073066 0)
(0.00193289 0.000528442 3.85785e-16)
(-0.00189632 0.000785652 5.36678e-17)
(1.46268e-05 0.00273589 -7.96975e-19)
(2.05979e-06 0.00273549 -2.03829e-16)
(-1.70439e-05 0.00273299 -2.03656e-16)
(-0.00191868 0.00077028 3.04095e-16)
(1.46695e-05 0.00273681 -2.04089e-16)
(-2.23422e-05 0.00273402 7.93018e-19)
(1.17186e-06 0.00273347 2.00591e-19)
(1.82029e-05 0.00273411 0)
(-5.11726e-07 0.00273883 0)
(1.84501e-05 0.00273391 0)
(1.93344e-06 0.00273545 0)
(-0.00192187 0.000730292 -5.05806e-17)
(-2.00921e-05 0.00273305 0)
(-1.3372e-06 0.00273476 0)
(0.00203248 0.00094538 1.5751e-16)
(1.24246e-06 0.00273555 0)
(-0.000110174 0.00284794 0)
(-5.34102e-07 0.00273869 4.08008e-16)
(9.86639e-07 0.0027335 0)
(0.00187062 0.000689164 -4.81145e-17)
(0.00188274 0.000730998 0)
(0.00170375 0.000825237 1.05924e-16)
(0.00184821 0.000669832 -2.06198e-16)
(2.13768e-06 0.002735 -4.07223e-16)
(-0.00174288 0.000752932 0)
(8.60608e-07 0.0027356 -1.99181e-19)
(-0.00190885 0.00077172 -9.91581e-17)
(2.04745e-05 0.00273427 0)
(0.000934354 0.00106838 0)
(3.42979e-07 0.00273485 -4.0203e-19)
(1.7512e-06 0.00274161 -1.26934e-17)
(0.000702917 0.00168387 -7.05265e-18)
(1.82118e-05 0.00273263 0)
(2.19328e-06 0.00273474 0)
(-0.00191742 0.000753711 0)
(-8.97377e-07 0.00273543 4.06409e-16)
(-7.95528e-07 0.00273611 0)
(0.00187862 0.000720777 3.89311e-21)
(0.000532826 0.00157741 0)
(-9.31348e-08 0.00273504 4.14443e-19)
(-2.29077e-07 0.00273637 -2.04145e-16)
(1.38285e-06 0.0027344 -2.03125e-16)
(1.14308e-06 0.00273367 -4.02704e-19)
(5.05154e-07 0.00273398 0)
(1.05232e-06 0.0027372 1.47217e-20)
(0.00192096 0.000684702 0)