/*--------------------------------*- C++ -*----------------------------------*\
  =========                 |
  \\      /  F ield         | OpenFOAM: The Open Source CFD Toolbox
   \\    /   O peration     | Website:  https://openfoam.org
    \\  /    A nd           | Version:  12
     \\/     M anipulation  |
\*---------------------------------------------------------------------------*/
FoamFile
{
    format      ascii;
    class       volVectorField;
    location    "0.14";
    object      U;
}
// * * * * * * * * * * * * * * * * * * * * * * * * * * * * * * * * * * * * * //

dimensions      [0 1 -1 0 0 0 0];

internalField   nonuniform List<vector> 
4428
(
(0.00106514 0.000404607 1.01428e-16)
(-0.00107821 0.000445813 -9.03826e-17)
(-0.00097702 0.000447314 0)
(-0.00101491 0.00042952 0)
(0.000974999 0.000811577 8.16391e-17)
(0.00101829 0.000836088 3.24279e-21)
(-0.000970887 0.000562995 0)
(-0.00108821 0.000387427 1.4641e-16)
(0.00105044 0.000432435 -2.49065e-16)
(0.0010853 0.000312548 9.95374e-17)
(-0.000994316 0.000344614 -1.7333e-16)
(0.000996134 0.000427171 -1.76862e-16)
(-0.00112169 0.000233285 -2.03658e-16)
(-0.000345478 0.00125006 -9.58153e-17)
(0.00104905 0.00040716 0)
(0.000960092 0.000350921 0)
(0.00108834 0.000392434 0)
(-0.000994725 0.000343914 0)
(-0.00112779 0.000231927 0)
(0.00106123 0.000406325 0)
(0.000376147 0.000309323 -4.48035e-16)
(-0.0010741 0.000411339 -1.77701e-16)
(-0.00101252 0.000433194 0)
(-0.0011087 0.000374697 0)
(-0.00106904 0.000408308 2.26616e-17)
(-0.00101284 0.000372447 0)
(-0.00102585 0.000548123 1.03356e-16)
(0.00103372 0.000329044 2.07803e-16)
(0.000967084 0.000477577 0)
(-0.00113737 0.000255665 0)
(0.00105535 0.000250765 0)
(-0.00108616 0.000408728 -1.84203e-16)
(0.00107052 0.000340671 -9.00191e-17)
(-0.00110711 0.000540358 -2.77422e-16)
(-1.41549e-05 0.00145256 4.6977e-17)
(-0.00108245 0.000423428 1.99861e-16)
(-0.00106434 0.000539584 -4.41999e-21)
(0.000985774 0.00132856 1.27043e-17)
(-0.000151448 0.00125996 -2.62232e-17)
(-0.00101687 0.000447586 0)
(0.00107375 0.000386464 0)
(0.000966267 0.000306545 0)
(0.00101691 0.000345384 9.24315e-17)
(-0.00110946 0.000353281 1.66057e-16)
(0.00106196 0.000330693 0)
(0.0008661 0.000325947 0)
(0.00101414 0.00097542 -9.97833e-17)
(-0.00101195 0.000495196 2.03143e-16)
(-0.00103054 0.000437841 2.24459e-16)
(-0.00106159 0.000469297 0)
(0.00106448 0.000448978 0)
(0.00094649 0.000461751 1.88122e-16)
(0.0010899 0.000313182 -9.13181e-17)
(0.000959998 0.000475815 0)
(0.000984338 0.000420387 -1.39783e-17)
(0.000645453 0.000304176 0)
(0.000952262 0.00045615 -9.29924e-17)
(-0.00103389 0.000333756 0)
(0.000887132 0.000952605 1.8296e-16)
(0.0010429 0.000354325 -1.8201e-16)
(0.00109118 0.000419384 1.67096e-16)
(-0.00109229 0.000346206 0)
(0.000948341 0.000375629 2.79951e-16)
(-0.00108393 0.000407005 9.26978e-17)
(-0.00108004 0.000424271 0)
(0.000995334 0.00043713 0)
(-0.00110549 0.000358918 1.73157e-16)
(-0.00102287 0.000437587 -1.8582e-16)
(0.00102995 0.000365575 -1.82185e-16)
(-0.00105278 0.000458052 -3.61907e-16)
(-0.00110987 0.000343613 -9.16128e-17)
(0.00104124 0.00047561 2.12652e-16)
(0.00113357 0.000499713 5.80503e-17)
(-0.0010037 0.000419539 4.46952e-17)
(0.00105991 0.000372141 1.96649e-16)
(-1.88504e-05 0.00143276 -1.83294e-16)
(0.00109033 0.000501186 0)
(0.00112205 0.000442801 0)
(-0.000982298 0.000567946 -1.18144e-16)
(0.000759171 0.000356364 -4.324e-21)
(0.000956673 0.000492296 -1.97538e-16)
(-0.00109996 0.000346316 0)
(0.0010172 0.000489386 -1.81063e-16)
(0.00103033 0.000431719 -1.72065e-16)
(0.00108788 0.00039025 3.18304e-16)
(-0.00118222 0.000367409 -2.54688e-16)
(-0.000140712 0.00161939 1.15143e-16)
(-0.00109918 0.000402589 0)
(-0.00108108 0.000411891 -9.60337e-17)
(0.000987929 0.000433767 2.04741e-17)
(0.00106156 0.000316704 8.36647e-17)
(0.00108811 0.000389501 -1.59368e-16)
(-0.00109594 0.000435717 0)
(-0.00108919 0.000406049 0)
(-0.00108053 0.000424972 9.8169e-17)
(-0.00104814 0.00044131 1.67119e-16)
(0.00107622 0.000426332 1.1353e-16)
(-0.00110399 0.000419407 -1.19902e-16)
(-0.00111126 0.000340317 9.28703e-17)
(0.00100295 0.000546118 0)
(0.00100469 0.000459695 -2.2514e-17)
(0.00103824 0.000408015 0)
(0.00106484 0.000374437 0)
(0.000961731 0.000361783 -1.87986e-16)
(0.00094368 0.000445739 -1.03701e-16)
(0.000978227 0.000472598 2.49427e-21)
(0.00104144 0.000428753 1.90325e-16)
(-0.001067 0.000513666 -1.22455e-16)
(0.00108039 0.000424488 -1.20822e-16)
(0.00101322 0.000505035 0)
(0.00103954 0.000343234 1.64695e-16)
(0.00104454 0.000400822 -1.94804e-16)
(-0.00100421 0.000413818 2.63471e-21)
(0.000991054 0.000376917 1.65964e-16)
(-0.000604476 0.000379856 1.15542e-16)
(-0.00110888 0.000334936 1.80232e-16)
(-0.000239455 0.00139623 0)
(0.000431842 0.000337336 5.24746e-17)
(-0.00112098 0.000368555 8.87649e-17)
(0.00112018 0.000437755 -1.1286e-16)
(0.00111645 0.000434153 2.11531e-16)
(-0.000983265 0.000572337 2.41277e-16)
(0.000722439 0.00118223 -1.96895e-16)
(0.00106201 0.000344623 -3.03618e-16)
(3.51145e-06 0.00145299 1.78759e-16)
(-0.00108501 0.000407221 0)
(-0.00110107 0.000366864 -2.72257e-16)
(0.00100088 0.000421585 9.95087e-17)
(-0.0010806 0.000441268 -3.041e-16)
(-0.00108313 0.000422255 9.66766e-17)
(-0.00110919 0.000346752 -1.87132e-16)
(-0.00106144 0.000438331 0)
(0.00107302 0.000429368 2.24126e-16)
(0.00102506 0.00038654 0)
(0.00104025 0.000405321 0)
(0.00111193 0.000480088 6.53861e-21)
(0.00110228 0.000461087 -2.43669e-16)
(-0.00110663 0.000339364 -1.82388e-16)
(-0.0010856 0.000417682 -1.8355e-16)
(-0.00107466 0.00043561 1.43948e-16)
(-0.00107164 0.000519763 -1.23706e-16)
(-0.0010859 0.000392384 -9.67482e-17)
(0.00102409 0.000411411 0)
(0.00103087 0.000417703 -1.99429e-16)
(0.00107839 0.000403572 0)
(0.0010182 0.000392327 9.67644e-17)
(0.00109739 0.000498613 1.28474e-16)
(-2.65267e-05 0.00103144 -9.13946e-17)
(0.00114212 0.000307662 2.88888e-16)
(-8.15451e-06 0.00144902 4.54408e-17)
(-0.00108427 0.000407401 -1.99513e-16)
(-0.000704198 0.000315796 1.00283e-16)
(0.00102186 0.000327161 -9.6256e-21)
(0.0011392 0.000390832 -2.48623e-16)
(-0.00108237 0.000421944 2.91594e-16)
(0.00109874 0.000409176 0)
(0.000998558 0.000671289 -1.77127e-16)
(0.00106955 0.00031655 -9.48482e-17)
(0.00105557 0.000381174 -1.78767e-16)
(-0.00109402 0.000353776 -9.12343e-17)
(-0.00107765 0.000448339 1.95447e-16)
(0.0010498 0.000415357 0)
(0.00113265 0.000349986 0)
(-0.000379859 0.000170179 -2.17177e-16)
(-0.00114403 0.000481495 1.19564e-16)
(-0.00110767 0.000342988 0)
(-0.00108043 0.000395753 0)
(0.00113087 0.000366484 0)
(-0.00108029 0.000416254 1.9225e-21)
(-0.00108745 0.00046832 9.36786e-17)
(-0.00110714 0.000361002 -9.37997e-17)
(0.00108414 0.000430887 3.98599e-21)
(-0.00108861 0.000409315 0)
(0.000976899 0.000412661 0)
(0.000998144 0.00129613 -1.16374e-17)
(-0.00115567 0.000487667 2.29078e-16)
(0.00109236 0.000393352 0)
(0.000951624 0.000484318 2.1459e-16)
(0.00102392 0.000435868 2.1794e-16)
(-0.00115464 0.000477185 1.14319e-16)
(-0.000138511 0.00145784 -7.04267e-21)
(-0.00104657 0.000432821 1.75079e-16)
(-0.00109194 0.000382383 1.91951e-16)
(0.00100114 0.000383198 0)
(-0.0010836 0.000407847 3.00572e-16)
(-0.00107551 0.000502503 -9.52172e-17)
(0.00107322 0.000416269 0)
(-0.00108082 0.000421057 0)
(0.000921174 0.000394118 3.43572e-16)
(0.00106139 0.000472315 0)
(0.00104885 0.000382209 0)
(0.00109472 0.000529059 2.5847e-17)
(0.00106486 0.000377143 0)
(0.00107586 0.000456906 -3.67873e-16)
(-0.0010487 0.000499765 0)
(-0.00104515 0.000494538 -1.80868e-16)
(-0.00104452 0.000493199 2.70925e-16)
(-0.00103189 0.000484088 8.88778e-17)
(0.00147305 0.000853568 1.48758e-16)
(-0.000334265 0.00154357 0)
(0.00106846 0.00048594 2.13764e-16)
(-0.00109116 0.000394889 -1.94081e-16)
(0.000847113 0.000452984 -1.90309e-16)
(-0.00109815 0.000354222 0)
(0.000971933 0.000377806 -1.76632e-16)
(0.00105659 0.000371243 -2.98059e-18)
(-0.00107807 0.000417648 9.32585e-17)
(-0.000239814 0.00167442 -1.77908e-16)
(-0.000531848 0.00145058 1.11841e-17)
(0.000716593 0.000375526 0)
(0.00108175 0.000466093 0)
(0.0011731 0.000413547 0)
(0.00107636 0.000452197 5.94071e-21)
(-0.00108932 0.000383171 0)
(0.00105317 0.000396327 0)
(-0.00105719 0.000489168 -1.40089e-16)
(-0.00104651 0.000482584 1.83785e-16)
(2.88216e-05 0.00145055 -1.84693e-16)
(-0.00101957 0.000392254 1.99299e-16)
(-0.00104043 0.000490543 -4.53594e-17)
(0.00107552 0.000447928 1.95365e-16)
(0.00113501 0.000394758 -6.15119e-17)
(-0.00107448 0.000418699 1.8547e-16)
(0.00110645 0.000481876 0)
(-0.00104898 0.000493164 0)
(-0.00108323 0.000408656 0)
(-0.00109454 0.00041865 -1.08727e-16)
(0.00104816 0.000376712 -1.93044e-16)
(0.000999981 0.00042084 3.76252e-21)
(-0.00108015 0.000420767 0)
(-0.00108394 0.000393952 9.83245e-17)
(-0.000667229 0.00132428 0)
(0.000912127 0.000559357 0)
(0.000164627 0.00160489 8.61751e-17)
(0.00101834 0.000411835 5.7463e-17)
(-0.001056 0.000477154 0)
(-0.00105128 0.000486433 0)
(-0.0010511 0.000482916 1.88218e-16)
(-0.00105502 0.000480911 -1.86175e-16)
(-0.00109604 0.000360628 2.9777e-16)
(-0.000107304 0.000274084 5.13889e-17)
(-0.00111299 0.00042985 -5.90067e-17)
(-0.001035 0.000483794 6.23705e-17)
(0.00105412 0.000417207 2.23736e-17)
(-0.00108745 0.000386501 -9.62588e-17)
(-0.000297061 0.0010879 -1.01156e-16)
(-0.00107496 0.00051472 1.89327e-16)
(-0.00109003 0.000389254 1.92817e-16)
(0.00125237 0.000836876 0)
(-0.000121406 0.00109215 0)
(-0.00113317 0.000467791 6.09011e-21)
(0.00102826 0.000409088 2.04396e-16)
(0.00108165 0.000447642 -1.0565e-16)
(-0.00104805 0.000482186 1.81889e-16)
(0.000937408 0.000347574 -1.31318e-16)
(0.000187197 0.00012615 1.07918e-16)
(-0.00105151 0.000483286 -3.65589e-16)
(1.54765e-05 0.00144054 0)
(-0.00123766 0.000443457 -3.6679e-17)
(-0.00105932 0.000479896 -2.11763e-16)
(-0.00105588 0.000480816 1.9002e-16)
(-0.000375405 0.000189339 2.17219e-16)
(-0.001083 0.000396487 0)
(0.00114576 0.000242668 1.23014e-16)
(-0.00105086 0.000480041 -9.37852e-17)
(-0.00107631 0.000417763 -1.00073e-16)
(0.00108649 0.000393959 0)
(-0.00105237 0.000482077 0)
(-0.000730281 0.00159667 1.37277e-16)
(-0.00111715 0.000377782 -1.83738e-16)
(0.00105124 0.000362674 0)
(0.00109665 0.000505008 2.3718e-16)
(0.00104957 0.000418258 1.23125e-17)
(-0.000217297 0.001172 2.58443e-16)
(-0.00108394 0.00040976 0)
(0.00102244 0.000434905 1.98133e-16)
(0.00106072 0.000402699 -2.63564e-16)
(-0.00108526 0.000392918 1.94298e-16)
(0.00112214 0.000535085 0)
(0.000179476 0.000123015 -1.10466e-16)
(-0.00117591 0.000491303 -2.45347e-22)
(-0.000190919 0.0014869 9.63413e-17)
(0.00105277 0.000396477 0)
(-0.00109386 0.000365844 -2.99178e-16)
(0.000976045 0.000553841 3.93348e-16)
(0.000957952 0.000557298 -9.12446e-17)
(0.00106286 0.000416554 -1.32951e-17)
(0.0010658 0.000360182 -1.26248e-16)
(0.00106598 0.000421561 1.94438e-16)
(0.00107297 0.000395906 0)
(-0.00118937 0.000360184 1.43579e-16)
(-0.00112267 0.00036606 -1.87092e-16)
(-0.0010605 0.000471876 -7.47201e-19)
(0.00100737 0.000486215 0)
(0.000987796 0.000431489 2.14673e-16)
(0.00034192 0.000121885 2.31986e-16)
(-0.00107717 0.000401579 1.95535e-16)
(-0.0010493 0.00047898 2.07964e-16)
(-0.00107397 0.0004874 0)
(-0.000663278 0.00155819 1.96763e-16)
(-0.00108768 0.000395382 5.90976e-21)
(0.00100473 0.000375801 1.14695e-16)
(-0.00108198 0.000398522 0)
(-0.00105664 0.000479187 -1.18783e-17)
(-0.0010555 0.000482331 0)
(-0.0010547 0.000481822 -1.85913e-16)
(-0.00108648 0.000422325 0)
(-0.000148015 0.00160096 -1.19593e-16)
(0.000713101 0.00039931 -3.4456e-16)
(0.00104712 0.000533204 1.25597e-16)
(-0.00108491 0.000396211 9.79716e-17)
(0.00103646 0.000409428 0)
(0.00110776 0.00052311 -1.26567e-16)
(-0.00018255 0.00157914 -1.90455e-16)
(0.000651439 0.000219062 -2.23907e-16)
(0.00105029 0.000430546 0)
(0.00107474 0.000474321 0)
(0.00104254 0.000443421 -1.87617e-16)
(-0.001092 0.000371854 0)
(-0.00107742 0.000411266 1.96571e-16)
(-0.00026742 0.00173849 -6.1761e-18)
(-0.00114292 0.000490753 -1.01492e-16)
(-0.00100031 0.000384599 6.10882e-17)
(0.00103134 0.000399742 3.89326e-16)
(-0.000768282 0.00236669 -1.46079e-16)
(0.00176398 0.000694889 -1.97878e-16)
(0.00100084 0.000455479 -2.12586e-16)
(-0.00107035 0.000415117 9.64311e-17)
(-0.00107138 0.000499555 -1.21774e-17)
(-0.00104717 0.000486102 -1.89496e-16)
(0.00104745 0.000399678 2.09791e-16)
(-0.00107561 0.000405097 0)
(-0.00108219 0.000399497 9.90855e-17)
(-0.00123625 0.000439879 1.5096e-16)
(-0.00108627 0.000515528 0)
(-0.00107033 0.000489766 0)
(0.00111023 0.00051293 -1.23284e-16)
(0.000994692 0.00038386 0)
(-0.00108223 0.000408643 0)
(0.00100925 0.00037882 0)
(-0.00105636 0.000480993 1.18324e-17)
(-0.00106862 0.000475643 7.54741e-19)
(0.000979718 0.00032481 0)
(0.00105984 0.000397601 1.92891e-16)
(-1.59593e-05 0.0014505 0)
(0.00105183 0.000348919 0)
(-0.00108634 0.000398859 4.92541e-17)
(-0.00109235 0.000390641 -3.01486e-16)
(0.000109298 0.000642584 0)
(-0.00107435 0.00041368 -1.9342e-16)
(-0.00112338 0.000249489 9.23826e-17)
(-0.00112954 0.000441085 -4.32667e-21)
(-0.00115525 0.000389238 -2.43398e-16)
(-0.00123698 0.000430935 1.51162e-16)
(-0.00105864 0.000500817 0)
(-0.00109366 0.000378046 2.02117e-16)
(-0.00107365 0.000412494 1.00296e-16)
(0.00105613 0.000398677 0)
(-0.00106335 0.000367424 1.62547e-16)
(-0.00107831 0.000402661 -2.68741e-16)
(4.05067e-06 0.00140843 0)
(-0.00105163 0.000476966 -2.80439e-16)
(-0.00108633 0.000447259 0)
(-0.00108574 0.00040414 0)
(0.00107406 0.000395296 2.03119e-16)
(-0.00108196 0.000395939 1.01386e-16)
(0.000941864 0.000341042 2.14783e-16)
(0.00107181 0.000432001 -2.03933e-16)
(-0.000760281 0.000368795 0)
(-0.00114759 0.000385468 0)
(-0.00107499 0.000413835 0)
(0.00105238 0.000409379 -2.12711e-16)
(0.00106844 0.000458655 0)
(0.0010621 0.000403875 0)
(-0.00115225 0.000499771 -2.99365e-16)
(0.000156271 0.0014228 2.17987e-16)
(-0.00106335 0.000495682 1.92281e-16)
(0.00109639 0.000336886 -2.15591e-16)
(-1.7521e-05 0.000752943 -6.19436e-17)
(-0.00108098 0.000421535 0)
(-0.00107762 0.000457751 2.99758e-16)
(-0.00103259 0.000487375 -1.80341e-16)
(0.000109408 0.00110315 1.08288e-16)
(0.00112054 0.000228689 0)
(0.00115842 0.000300904 1.14708e-16)
(0.00101646 0.000432736 1.77802e-16)
(-0.000217028 0.000164686 2.10734e-16)
(-0.00107783 0.000399643 -9.03938e-17)
(0.00106188 0.000420281 0)
(0.000659249 0.000248239 0)
(0.000909665 0.000278794 3.86492e-16)
(-0.00107628 0.0004147 0)
(0.00111688 0.000359599 -1.0723e-16)
(-0.00115293 0.000300179 1.26095e-16)
(-0.00108379 0.000412833 9.58127e-17)
(0.00102638 0.000411128 -1.95169e-16)
(-0.00121917 0.000458086 -1.35981e-16)
(-0.00101728 0.000427267 1.849e-16)
(-0.00117882 0.000542603 1.01009e-16)
(-0.000805207 0.000317243 -1.08943e-16)
(-0.00108604 0.000410086 0)
(-0.00108157 0.000411291 0)
(-7.14014e-05 0.000541984 0)
(3.95918e-06 0.00140526 -2.50983e-16)
(-0.00115207 0.000404277 0)
(-0.00109072 0.000536616 -8.7231e-17)
(0.00104819 0.000404297 3.76166e-16)
(0.0010063 0.000426881 -1.11176e-16)
(0.00104895 0.000373648 3.79532e-16)
(0.0010619 0.000444328 -5.49159e-17)
(0.00105493 0.000400469 -5.54984e-21)
(-0.00107161 0.000432059 -4.91293e-17)
(-0.00107457 0.000418617 -9.63675e-17)
(-8.78903e-05 0.0016606 5.97395e-18)
(-0.00107834 0.00041574 -1.95298e-16)
(-0.00107126 0.000448216 -5.15035e-17)
(0.0010055 0.00043659 0)
(-0.00108107 0.000415274 -9.75877e-17)
(-0.00115104 0.00042742 -3.58924e-16)
(-0.00105217 0.00047307 -1.39395e-17)
(-0.00108638 0.000406153 0)
(-0.00109579 0.000354927 4.835e-17)
(-0.00108082 0.000400163 -9.87675e-17)
(0.00114612 0.000504957 -2.08725e-16)
(-0.00107259 0.000425445 -9.94724e-17)
(0.000148725 0.00160185 6.96556e-18)
(0.0010287 0.000374254 2.44313e-17)
(-3.06644e-05 0.00157784 -1.98861e-16)
(-0.00119681 0.000494811 2.82354e-16)
(-0.00104345 0.000352358 -3.98532e-16)
(0.00105344 0.000406625 1.03055e-16)
(-0.00119847 0.000495239 1.25937e-16)
(0.000158376 0.000823332 8.11335e-17)
(-0.00106957 0.000423884 1.97981e-16)
(0.00102383 0.000350647 1.76672e-16)
(-1.17461e-05 0.00154839 0)
(-2.8572e-05 0.00137278 -2.83928e-16)
(-0.00107337 0.000443755 -1.57229e-16)
(0.00103909 0.000354362 -5.19588e-17)
(-1.21642e-05 0.00154429 7.90278e-19)
(0.00126276 0.000502341 9.76715e-17)
(-0.000993441 0.000397727 2.953e-16)
(-0.0010842 0.000411905 -5.09888e-17)
(-0.00109713 0.000388472 0)
(-0.00112395 0.000411493 2.29033e-16)
(0.00104045 0.000420492 -2.02297e-16)
(-0.00107485 0.000419551 -9.68019e-17)
(0.00103824 0.000410797 0)
(-2.48894e-06 0.00153584 -2.01874e-16)
(-0.00114608 0.000438961 1.2077e-16)
(0.0012093 0.00108444 -3.66329e-16)
(0.00106774 0.000406463 0)
(-6.86872e-06 0.00153607 0)
(0.00109611 0.000439668 5.94818e-21)
(4.50158e-06 0.00153163 -2.02112e-16)
(2.42688e-06 0.00153547 4.01906e-16)
(-0.00107159 0.000420589 4.98495e-17)
(-9.57032e-05 0.00158174 1.97709e-16)
(-4.1016e-06 0.00153046 0)
(-9.9075e-06 0.00153771 2.01157e-16)
(-0.00107263 0.000418204 0)
(0.00123557 0.000689191 0)
(4.97988e-06 0.00153371 0)
(-2.39798e-06 0.0015335 -2.0144e-16)
(-0.00106929 0.000438816 0)
(-5.46036e-06 0.00153463 4.05275e-16)
(-0.00108191 0.000409821 0)
(-2.2658e-06 0.00153447 -2.02421e-16)
(-0.00107365 0.000418288 -2.93185e-16)
(-2.72179e-06 0.00152946 0)
(-0.00106303 0.000440953 9.67032e-17)
(-0.000484363 0.00175502 -4.7137e-17)
(0.00112417 0.000504002 2.50259e-16)
(0.00114905 0.000431783 0)
(3.07645e-07 0.00153323 1.45295e-20)
(-6.00914e-06 0.00153554 -1.9939e-16)
(-0.00109132 0.000359952 -8.51753e-17)
(0.0010267 0.00046035 -2.05744e-16)
(0.000927694 0.000376727 0)
(0.00104795 0.000402464 3.10265e-16)
(-1.14378e-06 0.00153375 2.02e-16)
(-0.00106976 0.00041983 0)
(-3.77385e-05 0.00155081 2.00564e-16)
(-1.0939e-06 0.00153026 0)
(-2.63997e-06 0.00153261 -2.04881e-16)
(-0.00107746 0.00041993 0)
(0.00105567 0.000451953 1.95267e-16)
(-0.00108108 0.00041354 2.68314e-21)
(3.91553e-07 0.00152981 2.02886e-16)
(0.00107056 0.000392403 -4.19352e-16)
(0.000159969 0.000909989 0)
(-5.53168e-06 0.0015354 0)
(0.00118846 0.000549192 1.46625e-16)
(0.00104905 0.000365975 0)
(-0.000120196 0.00164551 0)
(-0.00108016 0.000408845 -3.52292e-16)
(-4.12002e-05 0.00157098 0)
(-0.00107452 0.000418845 9.75576e-17)
(-0.000911357 0.000778292 -5.25377e-17)
(-0.00106958 0.000439135 2.01113e-16)
(3.76043e-07 0.00153091 -4.04627e-16)
(-0.00109833 0.00040204 5.41575e-17)
(-0.00106236 0.00044095 1.92965e-16)
(-1.88792e-06 0.00153192 0)
(-3.76598e-06 0.00152962 -1.9825e-16)
(0.000992189 0.000336041 0)
(4.85806e-07 0.00153295 -2.04207e-16)
(9.49155e-07 0.00153153 0)
(-7.18785e-05 0.00159267 2.01277e-16)
(2.99708e-06 0.00137912 -2.27205e-16)
(-0.00104548 0.00044826 1.17407e-16)
(-2.21975e-05 0.00155354 9.81735e-20)
(0.00076245 0.000223785 0)
(-0.00110449 0.000404083 7.99854e-17)
(-0.00104241 0.000445586 4.68856e-17)
(3.24056e-06 0.00152896 4.05016e-16)
(-6.09075e-06 0.00153467 2.01602e-16)
(-0.00109719 0.000421683 -4.66001e-16)
(9.68883e-07 0.00153147 2.02684e-16)
(0.000969885 0.000308751 6.70497e-21)
(-7.86624e-06 0.00153175 2.00602e-16)
(-0.00108477 0.00041214 0)
(-0.00106837 0.000429149 5.12182e-17)
(-8.28369e-07 0.00153219 -1.45961e-20)
(0.0010421 0.000517269 2.10082e-16)
(-0.00107863 0.000420835 -1.02841e-16)
(-0.00106385 0.000438912 -8.98999e-17)
(-3.79738e-06 0.00153399 -2.01525e-16)
(0.00104786 0.00041095 3.51596e-18)
(-2.18775e-07 0.00153281 -1.46002e-20)
(-0.00108794 0.000410822 4.80866e-17)
(4.95345e-06 0.00153008 0)
(-0.00108124 0.000408591 0)
(-8.91599e-06 0.00153402 -2.01467e-16)
(7.74713e-07 0.00153253 2.02266e-16)
(0.001046 0.000435213 -2.4528e-17)
(-0.00110214 0.000378168 2.19721e-16)
(-8.10359e-06 0.00153198 1.99772e-16)
(1.91328e-06 0.00152986 0)
(-0.00107143 0.000435165 0)
(-0.00106659 0.000438843 1.53403e-16)
(-0.00110129 0.000350519 0)
(-5.66595e-05 0.000946123 -1.08309e-16)
(-2.88777e-07 0.00153268 2.02711e-16)
(-0.00106407 0.000437476 -1.45373e-16)
(-0.00107285 0.000420157 0)
(-0.00106791 0.000406482 5.30129e-17)
(-1.43468e-05 0.0015372 1.97008e-16)
(8.43437e-08 0.00153044 -1.46735e-20)
(-0.00107553 0.000411134 -5.14129e-17)
(0.000623221 7.50691e-05 -2.18994e-16)
(-1.36548e-05 0.00154058 -2.00426e-16)
(-4.40225e-06 0.00153441 2.02105e-16)
(2.16156e-06 0.00153061 2.02982e-16)
(-1.92007e-07 0.00153559 -2.00156e-16)
(0.00127839 0.000648692 -1.92048e-16)
(-9.15449e-06 0.00153199 -2.0111e-16)
(-0.00108336 0.000408743 0)
(-0.00106123 0.000394454 0)
(0.00102061 0.000395682 0)
(-2.35607e-06 0.00153032 -2.03571e-16)
(-0.0010626 0.000440432 2.48143e-16)
(0.00104009 0.000386495 -1.57151e-16)
(-0.00102695 0.000416491 2.71354e-16)
(-0.00107469 0.000417939 -1.96917e-16)
(-0.00107635 0.000416066 -1.01263e-16)
(-0.0011606 0.000546293 -1.00455e-16)
(-4.50151e-06 0.00153103 -4.05794e-16)
(4.19713e-06 0.00153044 8.46292e-20)
(-0.00107946 0.000446449 -5.80048e-17)
(-0.00107709 0.00043184 4.5996e-17)
(-0.00107677 0.000418386 -5.05268e-17)
(6.17036e-06 0.00153231 -2.02617e-16)
(1.28891e-06 0.00153042 4.10227e-16)
(-7.53794e-06 0.00153207 -2.02962e-16)
(1.30596e-06 0.00153205 -7.9537e-19)
(-0.00107411 0.00042564 4.91296e-17)
(-5.29246e-06 0.0015311 0)
(7.34316e-06 0.00153154 -2.03785e-16)
(4.97724e-06 0.0015299 2.02751e-16)
(6.33695e-06 0.0015324 3.50531e-20)
(-0.00107757 0.000406804 1.0207e-16)
(-8.61982e-06 0.00154055 0)
(-0.00107884 0.000410274 -2.00617e-16)
(-0.00110764 0.000400162 0)
(0.00105523 0.000403943 -2.2246e-16)
(-6.1928e-07 0.00153136 -1.57905e-18)
(0.00100766 0.000405102 1.97903e-16)
(9.72922e-07 0.00153133 -1.45342e-20)
(-9.32751e-05 0.00157164 0)
(-6.24661e-05 0.00155181 -1.99272e-16)
(-0.00107865 0.000411604 0)
(-0.00108728 0.000410229 -9.86564e-17)
(1.05194e-05 0.0015302 0)
(-0.00107021 0.000414588 -2.14074e-16)
(-0.00107556 0.000421321 -1.06355e-16)
(0.00104976 0.000418119 2.13742e-16)
(5.93659e-07 0.0015309 -2.03084e-16)
(-8.80005e-06 0.00153211 -2.03161e-16)
(-0.00108072 0.000428048 5.55538e-17)
(-1.67726e-06 0.00153148 -2.00308e-16)
(-0.001066 0.00040488 3.11587e-16)
(-7.15268e-06 0.0015308 -2.02291e-16)
(2.18188e-06 0.00153166 -1.45605e-20)
(-0.00107261 0.000461153 -2.3656e-16)
(-9.64893e-06 0.00153182 2.0063e-16)
(0.00105716 0.000399584 0)
(-0.00107392 0.000420133 -5.02512e-17)
(-5.46954e-07 0.00153104 3.18893e-18)
(-0.00108129 0.000404603 1.00775e-16)
(-2.66009e-07 0.00153059 -1.60074e-18)
(-0.00107423 0.000412462 5.04606e-17)
(-0.00101794 0.000376786 0)
(4.0513e-06 0.00153173 -1.46331e-20)
(-0.00117169 0.000494389 3.00918e-16)
(9.29769e-07 0.00153249 2.04471e-16)
(0.000978638 0.000491157 -5.87777e-17)
(-0.00103545 0.000457092 1.95206e-16)
(-3.32531e-07 0.00153151 2.04617e-16)
(0.00078267 0.000309033 2.15027e-16)
(-1.99899e-06 0.00153157 2.03322e-16)
(1.21696e-06 0.00153147 3.17272e-18)
(0.000896978 0.000328068 2.27233e-16)
(0.000961097 0.000339132 -2.12541e-16)
(0.00109308 0.000431132 0)
(-0.0011546 0.000471264 0)
(-8.87453e-06 0.00153172 -1.59108e-18)
(0.000996775 0.000378314 2.79972e-16)
(-8.60903e-06 0.00153085 -1.57973e-18)
(-0.00107656 0.000416976 -9.82431e-17)
(0.000981516 0.000331632 0)
(8.06079e-06 0.00153109 -4.05557e-16)
(1.3252e-06 0.00153121 -4.08072e-16)
(-0.001071 0.000431977 0)
(-0.00107762 0.000406156 0)
(9.20712e-07 0.0015324 -4.05522e-16)
(-3.05686e-05 0.00154697 0)
(-0.0010682 0.000443999 -1.95481e-16)
(-2.05428e-05 0.00154 -4.00517e-16)
(-0.000978937 0.000355444 0)
(0.00111048 0.000348413 5.24851e-17)
(9.4452e-08 0.00152961 -1.60741e-18)
(3.50526e-06 0.00153286 2.04312e-16)
(0.000837691 0.000522251 -7.0368e-18)
(4.11192e-07 0.00153118 -2.04794e-16)
(-0.00108355 0.000399347 1.57438e-16)
(-0.00115164 0.000531201 1.38984e-16)
(-9.54151e-06 0.00153147 2.01869e-16)
(-0.00108091 0.000404143 1.45749e-16)
(-1.67598e-06 0.0015319 2.04815e-16)
(-8.89855e-06 0.00153104 -2.02607e-16)
(-1.00171e-05 0.00153125 -2.01909e-16)
(-0.00106689 0.000433973 0)
(-0.00107927 0.000405574 -4.98685e-17)
(-1.08089e-06 0.00153092 -7.98789e-19)
(9.14699e-06 0.00153156 0)
(-0.00106536 0.000433247 1.9869e-16)
(-0.00107478 0.000405661 0)
(1.38751e-06 0.00153117 -2.03403e-16)
(-7.44602e-06 0.00153612 3.16234e-18)
(0.001048 0.000407081 -2.14736e-16)
(1.39525e-06 0.00153137 -4.10856e-16)
(-0.00115767 0.000451589 3.41578e-16)
(-5.68694e-07 0.00153131 0)
(-4.80111e-07 0.0015317 2.02762e-16)
(-2.9983e-07 0.00153148 0)
(-4.56754e-08 0.00153132 2.02822e-16)
(1.1404e-06 0.0015311 -2.02309e-16)
(0.000890541 0.00035027 1.21378e-16)
(4.07234e-07 0.00153082 2.02451e-16)
(7.07301e-07 0.00153431 -1.46583e-20)
(-1.23842e-08 0.00153129 2.04804e-16)
(-1.03946e-05 0.00153153 4.04651e-16)
(-0.00107928 0.000412565 0)
(-0.00107866 0.000415516 -5.25279e-17)
(-9.05912e-06 0.00153124 0)
(-2.07054e-07 0.00153138 0)
(-1.06132e-06 0.00153074 -2.06614e-16)
(9.1529e-06 0.001532 2.03101e-16)
(7.57519e-06 0.00153203 2.03866e-16)
(-0.00107608 0.000419623 2.57698e-16)
(8.16195e-06 0.00153131 2.03297e-16)
(-5.88889e-07 0.00153168 -2.04795e-16)
(-1.46106e-06 0.00153143 0)
(-4.05157e-07 0.0015313 -1.47069e-20)
(-0.00107853 0.000415463 1.00377e-16)
(9.06683e-06 0.00153149 0)
(8.57681e-06 0.00153096 2.03439e-16)
(-3.61867e-06 0.00153427 -2.05259e-16)
(-0.00108387 0.000404113 0)
(-1.01191e-08 0.00153133 0)
(0.00105782 0.000407143 -2.13233e-16)
(-1.80546e-07 0.00153237 1.59881e-18)
(-1.47989e-07 0.00153272 -3.98543e-19)
(-7.37537e-06 0.00153004 -7.92075e-19)
(-1.00725e-05 0.00153106 1.46023e-20)
(-8.09942e-06 0.00153042 7.92723e-19)
(-0.00108126 0.000474931 -1.24097e-16)
(-9.68669e-06 0.0015303 2.03613e-16)
(5.13239e-06 0.00153127 0)
(-9.49976e-06 0.00153051 2.02165e-16)
(-9.6309e-06 0.00153082 -2.02511e-16)
(-1.01556e-05 0.00153146 -2.03451e-16)
(-0.00130102 0.00106462 -3.08466e-16)
(-0.00024775 0.000306297 -3.84299e-16)
(9.35293e-06 0.00153167 -2.03716e-16)
(-9.22853e-07 0.00153134 -2.03074e-16)
(1.07996e-07 0.00153168 -2.03028e-16)
(8.4082e-06 0.00153095 2.035e-16)
(-0.00108403 0.000408923 -2.02475e-16)
(-1.0783e-05 0.00153076 2.02142e-16)
(-9.09706e-07 0.00153157 -2.02693e-16)
(-7.02885e-06 0.00153449 -4.03171e-16)
(-7.92413e-07 0.00153108 -1.60331e-18)
(9.99212e-06 0.00153105 2.02731e-16)
(0.00104959 0.000402461 2.13267e-16)
(-3.25404e-06 0.00153205 -2.02731e-16)
(6.01153e-07 0.0015313 -1.45908e-20)
(0.00111851 0.000461226 -2.63008e-16)
(-3.28524e-07 0.00153124 0)
(-6.71697e-07 0.00153129 0)
(-1.07417e-05 0.00153106 -4.06258e-16)
(-0.00107862 0.000413887 1.00718e-16)
(2.01912e-07 0.00153039 -4.00497e-19)
(-1.24518e-05 0.00153157 2.12281e-19)
(0.00105542 0.000396058 1.41757e-17)
(-1.14496e-05 0.00153231 2.03078e-16)
(1.13388e-05 0.00153162 2.03051e-16)
(1.03915e-05 0.00153135 -2.02903e-16)
(2.59122e-06 0.00153122 -2.03474e-16)
(-1.21752e-05 0.00153171 1.45955e-20)
(-0.0011203 0.000396583 -2.15476e-16)
(-0.000914897 0.00035103 2.6548e-16)
(-1.11031e-06 0.0015298 -1.46752e-20)
(-6.88805e-07 0.00153127 -2.02592e-16)
(-0.00106914 0.000434635 5.11241e-17)
(9.72789e-07 0.00153128 -1.47071e-20)
(-1.12293e-05 0.00153056 8.05159e-19)
(1.1273e-05 0.00153106 -4.06047e-16)
(5.11724e-06 0.00152962 2.03836e-16)
(9.56594e-06 0.00153074 -2.03834e-16)
(9.41155e-06 0.00153107 -2.03828e-16)
(1.12584e-05 0.00153127 2.03128e-16)
(9.36989e-06 0.00153085 1.98681e-19)
(1.11742e-05 0.00153131 0)
(0.00105782 0.000399988 0)
(-9.09416e-06 0.00153142 2.0449e-16)
(-7.33158e-07 0.00153302 0)
(2.02617e-06 0.00153243 2.03739e-16)
(1.1198e-05 0.00153126 0)
(1.11494e-05 0.0015314 2.03196e-16)
(1.12988e-05 0.00153114 -9.91923e-20)
(1.20659e-06 0.00153246 1.99366e-16)
(1.01474e-05 0.00153192 0)
(-2.8541e-06 0.00153282 0)
(-9.43479e-06 0.00153259 -2.04711e-16)
(-0.00107609 0.000416121 -2.47139e-21)
(9.94726e-06 0.00153122 0)
(-2.26641e-05 0.00155741 0)
(9.78015e-06 0.00153125 0)
(-0.00105259 0.000401404 1.57171e-16)
(7.80824e-07 0.00153143 -2.02844e-16)
(-7.0183e-06 0.00153452 2.04683e-16)
(1.02264e-05 0.00153215 -9.94059e-20)
(-0.00105356 0.000441509 5.56771e-17)
(-0.00107028 0.000435103 -5.08324e-17)
(8.95481e-06 0.00153185 -2.03822e-16)
(-2.65413e-06 0.00152891 0)
(-3.78723e-07 0.00153398 -2.03903e-16)
(9.06688e-06 0.00153197 1.46479e-20)
(1.12592e-05 0.00153105 -2.03662e-16)
(-1.16692e-06 0.00152786 4.05046e-16)
(0.00102168 0.000343919 -3.65598e-16)
(0.00105578 0.000409291 -4.30923e-16)
(-1.54205e-06 0.00153181 4.07255e-16)
(0.00104174 0.000410354 0)
(8.85587e-06 0.00153197 0)
(1.14341e-05 0.00153084 -3.97002e-19)
(-0.00109917 0.000435229 -1.84024e-16)
(-0.00107423 0.000439819 1.05906e-16)
(7.09173e-07 0.00153069 -1.00205e-19)
(8.94033e-06 0.00153211 2.03874e-16)
(9.56318e-07 0.00153131 -2.03132e-16)
(-0.000981991 0.000939122 1.02778e-16)
(8.46427e-06 0.00153193 7.96856e-19)
(-1.09685e-05 0.00153215 2.03304e-16)
(-8.97668e-07 0.00153341 2.04074e-16)
(-0.00122686 0.000628077 -2.01502e-16)
(8.74506e-06 0.00153242 0)
(-6.2729e-07 0.00153147 4.01579e-19)
(-2.33374e-06 0.00153293 -2.03107e-16)
(-0.00107941 0.000409259 0)
(0.0010925 0.000301859 3.85789e-16)
(-0.00106317 0.000442981 5.36685e-17)
(8.3639e-06 0.00153209 -7.96988e-19)
(1.17329e-06 0.00153181 -2.03832e-16)
(-9.76224e-06 0.00153041 -2.03659e-16)
(-0.00107421 0.000431551 3.04099e-16)
(8.40119e-06 0.0015326 -2.04092e-16)
(-1.28436e-05 0.00153097 7.9303e-19)
(6.73731e-07 0.00153066 2.00594e-19)
(1.04218e-05 0.001531 0)
(-3.72222e-07 0.00153369 0)
(1.05561e-05 0.00153087 0)
(1.09847e-06 0.00153184 0)
(-0.00107598 0.000409175 -5.05812e-17)
(-1.15041e-05 0.00153042 0)
(-7.52742e-07 0.00153138 0)
(0.00113687 0.000532603 1.57512e-16)
(7.4475e-07 0.00153185 0)
(-6.20587e-05 0.00159409 0)
(-3.07149e-07 0.00153366 4.08015e-16)
(5.65851e-07 0.00153067 0)
(0.00104805 0.000384853 -4.81151e-17)
(0.00105449 0.000409518 0)
(0.000940102 0.000471896 1.05925e-16)
(0.0010332 0.000372007 -2.06201e-16)
(1.19927e-06 0.0015321 -4.07229e-16)
(-0.000970765 0.000422332 0)
(4.70068e-07 0.00153188 -1.99184e-19)
(-0.00106864 0.000432463 -9.91593e-17)
(1.1739e-05 0.0015311 0)
(0.000522008 0.000597249 0)
(1.84444e-07 0.00153143 -4.02037e-19)
(8.15451e-07 0.0015354 -1.26936e-17)
(0.00039514 0.000939706 -7.05273e-18)
(1.04092e-05 0.00153017 0)
(1.24247e-06 0.00153138 0)
(-0.00107367 0.000423057 0)
(-4.8358e-07 0.00153125 4.06415e-16)
(-4.29524e-07 0.00153162 0)
(0.001052 0.000403688 3.89494e-21)
(0.000297031 0.000883389 0)
(-5.3923e-08 0.00153156 4.14451e-19)
(-1.286e-07 0.00153235 -2.04149e-16)
(7.91839e-07 0.0015312 -2.03129e-16)