/*--------------------------------*- C++ -*----------------------------------*\
  =========                 |
  \\      /  F ield         | OpenFOAM: The Open Source CFD Toolbox
   \\    /   O peration     | Website:  https://openfoam.org
    \\  /    A nd           | Version:  12
     \\/     M anipulation  |
\*---------------------------------------------------------------------------*/
FoamFile
{
    format      ascii;
    class       surfaceScalarField;
    location    "0.12";
    object      phi;
}
// * * * * * * * * * * * * * * * * * * * * * * * * * * * * * * * * * * * * * //

dimensions      [0 3 -1 0 0 0 0];

internalField   nonuniform List<scalar> 
6438
(
-1.96072e-08
2.43491e-06
-2.41531e-06
-2.1517e-08
2.82854e-06
-2.80702e-06
-2.65152e-06
-4.47629e-07
3.09915e-06
2.5161e-06
-2.7603e-06
2.442e-07
3.86895e-06
-3.02157e-06
-8.47382e-07
8.82367e-07
2.98658e-06
-3.01057e-06
3.59055e-07
-2.61396e-06
2.59244e-06
2.82172e-06
-3.37053e-06
5.48816e-07
2.62568e-06
-3.07736e-06
4.51683e-07
-2.54009e-06
3.08557e-06
-5.45483e-07
6.10445e-07
-2.78562e-06
2.17517e-06
-3.13948e-06
5.99395e-07
2.41322e-06
1.10828e-06
-3.52149e-06
2.2662e-06
-2.28581e-06
-1.27824e-07
2.65573e-06
-2.5279e-06
-3.34628e-06
3.24422e-06
1.02059e-07
-2.53422e-06
3.07474e-06
-5.40527e-07
-3.13606e-06
6.01841e-07
9.96072e-07
2.10849e-06
-3.10457e-06
-7.26464e-07
-4.75625e-07
1.20209e-06
-1.55209e-07
2.78273e-06
-2.62752e-06
-2.5791e-06
-4.18153e-07
2.99725e-06
-3.15493e-06
1.38544e-06
1.76949e-06
-2.74178e-06
2.58657e-06
-2.43504e-06
2.96046e-06
-5.25416e-07
-2.97203e-06
3.92934e-07
2.8213e-06
-2.21085e-06
-2.56198e-06
-4.7701e-07
3.03899e-06
-3.09575e-06
6.60706e-07
2.37752e-06
-2.98161e-06
6.04092e-07
1.34046e-08
-2.9057e-06
2.89229e-06
2.8427e-06
-2.8579e-06
1.51965e-08
-2.81629e-06
4.74753e-07
2.34153e-06
-3.80581e-06
6.15072e-07
3.19074e-06
2.67501e-06
-2.66161e-06
2.69775e-06
-1.8165e-07
1.75099e-06
2.45111e-06
-4.2021e-06
-8.61463e-07
3.27468e-06
-2.51185e-06
2.75911e-06
-2.47267e-07
-2.91117e-06
2.88388e-06
2.72857e-08
-1.21126e-06
2.20733e-06
2.60303e-06
2.26453e-08
-3.12843e-06
3.06514e-06
6.32908e-08
2.80638e-06
-4.28861e-07
-2.09909e-06
1.97127e-06
-3.63543e-06
6.13858e-07
2.76202e-06
2.66713e-07
-3.02873e-06
-2.15071e-06
-6.65577e-07
-3.92907e-07
-2.58515e-06
2.93343e-06
-3.48275e-07
-1.93083e-06
2.78281e-06
-8.51971e-07
2.79052e-06
-2.79052e-06
8.75549e-07
2.11659e-06
2.78634e-07
-2.39523e-06
1.24193e-06
6.01659e-07
-1.84359e-06
2.36438e-06
4.92258e-07
-2.85664e-06
2.28165e-06
-8.96212e-07
-1.32322e-06
-2.31221e-06
-2.73144e-08
2.4597e-06
-2.43238e-06
-3.03474e-06
3.03474e-06
-3.14202e-06
3.173e-06
-3.09824e-08
1.26056e-07
2.33874e-06
-2.46479e-06
8.9026e-09
-2.86444e-06
2.85554e-06
2.65769e-06
-2.64879e-06
-2.89755e-06
3.35576e-07
-2.9054e-06
-2.23028e-07
-2.49798e-06
2.74398e-06
-2.45999e-07
2.76292e-07
2.39202e-06
-2.66832e-06
-2.93738e-06
2.82525e-06
1.12133e-07
2.86401e-06
-2.86401e-06
2.66331e-06
1.58407e-07
-1.74921e-06
-1.32815e-06
2.49321e-06
5.26311e-07
-3.01952e-06
-2.44718e-06
-4.63985e-07
2.17314e-06
1.68078e-06
-3.85392e-06
-3.36747e-06
2.15621e-06
-2.15157e-06
-1.2159e-06
2.96047e-06
-4.67265e-07
1.76691e-06
-5.24977e-07
2.40168e-06
2.72155e-07
-2.67383e-06
-2.96056e-06
-1.81458e-07
-4.21237e-07
-7.20145e-07
-2.31459e-06
3.20881e-06
-3.20881e-06
-2.12369e-06
-8.13692e-07
-1.92963e-07
-3.61285e-06
-2.76855e-06
2.75782e-06
1.07261e-08
9.96926e-08
-2.80613e-06
2.70644e-06
-3.08586e-07
2.71026e-06
2.77221e-06
7.0497e-08
-2.89577e-06
-4.50504e-07
-2.92278e-06
2.99605e-06
-7.32691e-08
3.05563e-06
-1.70953e-06
-1.3461e-06
2.73898e-06
-2.63929e-06
5.67047e-08
3.0749e-06
-1.56481e-06
-1.5101e-06
1.74772e-06
1.30791e-06
2.81913e-06
-2.81913e-06
-2.16279e-06
3.1013e-06
-9.38505e-07
-2.71682e-06
1.31663e-07
-3.72188e-07
-2.19959e-06
2.57178e-06
-2.54711e-06
9.99239e-08
-2.72864e-06
5.65851e-07
2.353e-06
5.16173e-07
-2.86917e-06
-1.68801e-07
2.5218e-06
-2.45862e-06
2.84032e-06
-3.81698e-07
-2.61095e-06
9.90995e-08
1.80691e-06
1.26799e-06
2.72227e-06
-5.47099e-07
1.17075e-07
2.67344e-06
-2.34897e-06
-1.98132e-07
2.45473e-06
5.23184e-07
-2.97791e-06
-1.35787e-06
-1.17126e-06
2.52913e-06
1.78773e-06
-2.27916e-07
-1.55982e-06
-2.9057e-06
5.90971e-07
2.90901e-06
-3.49998e-06
-1.35032e-06
6.23861e-07
2.90464e-06
5.58152e-08
3.154e-06
-1.63167e-06
-1.52232e-06
1.05693e-06
2.09706e-06
2.93636e-06
-4.81632e-07
3.58693e-06
-1.83594e-06
-2.65747e-06
8.79332e-09
2.64868e-06
-3.80185e-06
3.85967e-07
3.41588e-06
-4.41254e-08
-2.63995e-06
2.68407e-06
2.90233e-06
1.6281e-07
-2.23991e-06
2.2126e-06
-2.67185e-06
2.72527e-06
-5.34174e-08
2.70581e-06
-2.74993e-06
2.79265e-06
-2.79265e-06
2.74813e-06
8.04118e-08
2.75371e-06
-6.37111e-07
2.71615e-06
-2.59009e-06
-2.3931e-06
2.02091e-06
2.49847e-08
2.6378e-06
-2.66279e-06
3.10748e-06
-2.17603e-06
-9.31449e-07
-2.86444e-06
-4.16883e-08
3.24383e-08
-2.6464e-06
-2.65043e-06
1.52445e-07
3.0097e-08
2.64492e-06
2.55966e-06
-2.28336e-06
-2.63954e-06
1.80925e-07
2.67722e-06
-7.41922e-08
-9.63161e-08
2.3308e-06
-2.23448e-06
1.83683e-06
1.27065e-06
-2.74397e-06
5.90688e-07
2.15329e-06
2.79792e-06
-1.51194e-08
-3.70038e-06
3.34914e-07
3.36546e-06
-3.78259e-08
-2.62614e-06
2.66397e-06
1.74527e-06
4.24655e-08
1.67711e-07
2.63021e-06
2.60244e-06
2.1886e-07
2.69025e-06
-2.72807e-06
-2.80305e-06
-9.27189e-08
2.86054e-06
-3.07569e-06
2.15145e-07
-2.5559e-06
-1.01573e-07
-3.11144e-06
1.34876e-06
1.76268e-06
-7.60065e-10
2.68915e-06
9.35792e-08
-2.53237e-06
2.94502e-06
-4.12646e-07
-2.78705e-06
2.40287e-06
3.84179e-07
-3.77499e-07
9.75203e-07
-5.97704e-07
-8.7489e-07
-2.22086e-06
-2.80613e-06
-2.22422e-08
2.67994e-06
8.2412e-07
2.27718e-06
-4.53099e-08
-2.72869e-06
-1.30914e-08
-5.82272e-08
-2.98217e-06
2.51912e-06
4.63044e-07
-1.74653e-07
2.22478e-06
4.38532e-07
4.36035e-06
-1.90924e-06
-9.21729e-07
-2.21433e-06
2.73434e-06
3.78661e-08
-2.34551e-06
9.87642e-07
-1.05587e-06
-1.66332e-06
2.71918e-06
-9.412e-07
-2.19828e-06
-1.52885e-06
3.70199e-06
-2.82186e-06
9.31771e-08
-2.66355e-06
2.67367e-06
-1.01179e-08
-2.19778e-06
2.10147e-06
-3.22664e-08
-2.6103e-06
2.64257e-06
-2.87103e-06
4.91625e-08
2.39303e-06
-2.84739e-06
4.54366e-07
2.6668e-06
-2.69907e-06
2.38248e-06
-9.0134e-07
-1.48114e-06
-3.60531e-06
1.27854e-06
2.32676e-06
2.44241e-06
2.34813e-07
2.01666e-06
1.22756e-06
5.88717e-07
2.62009e-06
-7.01389e-07
-2.50742e-06
-2.90716e-06
2.88072e-06
2.64356e-08
-2.89898e-06
-8.18215e-09
-2.88477e-06
-1.42089e-08
9.69561e-09
7.51237e-07
-4.19749e-06
3.44625e-06
-3.11437e-06
3.70535e-06
2.45946e-06
-2.43447e-06
2.6292e-06
1.09777e-07
2.14371e-07
2.16811e-06
-2.63995e-06
-2.39345e-06
2.38258e-06
2.96089e-07
-2.67866e-06
-1.34851e-08
-5.69731e-07
4.18867e-06
-3.61894e-06
3.97268e-06
-2.8644e-06
-1.20654e-06
1.8082e-06
-7.65609e-07
-2.34583e-06
-2.08222e-06
-1.52309e-06
-2.6388e-06
-1.64257e-07
-2.65821e-06
2.65775e-06
4.61565e-10
-4.18591e-07
2.49374e-06
-2.07514e-06
-2.85587e-06
2.87586e-06
-1.99849e-08
-2.82587e-06
-3.00066e-08
-3.62982e-06
2.27819e-07
3.402e-06
-2.53456e-06
-1.64429e-07
2.69899e-06
2.846e-06
2.98615e-08
-5.05529e-07
-3.10864e-06
1.13579e-06
1.97285e-06
1.72998e-08
-1.64497e-06
-1.46367e-06
-3.8771e-08
-2.92307e-08
-2.59483e-06
2.62406e-06
-2.66745e-06
1.32893e-07
2.41078e-06
3.23556e-07
2.77813e-06
-2.66105e-06
2.64088e-06
-2.67011e-06
2.63037e-06
7.54336e-08
1.29405e-06
2.67862e-06
2.73627e-06
-5.11497e-07
-2.15731e-07
-3.58612e-06
-1.55432e-07
2.1675e-06
-2.01207e-06
-2.81239e-06
-1.34733e-08
-2.81191e-06
-4.81386e-10
2.83394e-06
-2.81353e-06
-2.04083e-08
2.80378e-06
3.01605e-08
-2.62614e-06
6.48963e-07
-8.9072e-07
2.41757e-07
-3.17621e-06
1.86082e-06
1.31539e-06
1.41977e-06
-2.84748e-06
1.4277e-06
-2.48586e-06
-2.30952e-07
-2.64927e-06
2.63609e-06
1.31784e-08
-2.75454e-06
2.65665e-06
9.78838e-08
-2.20075e-07
2.81904e-06
-2.59896e-06
-2.7348e-06
6.73479e-08
-3.03713e-06
3.78837e-06
-2.80154e-07
-2.46382e-06
-2.8553e-06
2.63522e-06
-2.23696e-06
-2.05254e-07
2.44221e-06
-2.09199e-06
2.78597e-06
1.78077e-08
-1.90464e-06
-5.10492e-07
5.65972e-07
-5.54809e-08
-2.59386e-08
1.02859e-07
-3.62328e-06
3.52042e-06
-2.02771e-06
-9.82864e-07
-2.82357e-06
2.76694e-06
5.66353e-08
-2.78044e-06
-4.31368e-08
-9.98669e-07
6.2117e-07
2.62547e-06
6.47815e-08
2.8004e-06
-4.61659e-07
2.77845e-06
-2.77581e-06
-2.63344e-09
-7.32085e-09
-2.57472e-06
2.58204e-06
2.91017e-06
-2.08605e-06
-3.50849e-08
2.87927e-06
1.62957e-06
-4.50884e-06
2.85238e-06
-2.85238e-06
4.43671e-07
2.59107e-06
-1.00688e-06
-1.78364e-06
-2.27531e-06
2.74294e-06
-4.67631e-07
-3.00926e-07
-2.45361e-06
2.62761e-06
-2.63494e-06
-2.516e-06
4.13847e-08
2.47462e-06
4.83038e-07
-2.55089e-06
2.06785e-06
-2.6414e-06
2.61358e-06
2.78177e-08
1.68872e-06
1.22145e-06
-8.2408e-08
-4.28084e-07
-1.58979e-06
-1.58642e-06
-6.1248e-07
-2.82063e-06
2.88254e-07
-2.6103e-06
2.36551e-06
4.95031e-07
-2.19332e-06
-2.46652e-06
2.2956e-07
-2.51669e-06
1.46083e-06
2.85563e-06
-2.32117e-06
-5.34453e-07
4.87053e-07
2.29107e-06
-2.01629e-06
-9.55741e-07
-2.79216e-06
2.79216e-06
2.7948e-06
-2.68821e-06
-1.06592e-07
1.6022e-07
-2.64608e-06
-2.2361e-06
2.52827e-06
-2.9217e-07
-8.84606e-07
4.08981e-07
2.6029e-06
-2.6157e-06
1.28048e-08
2.73762e-06
2.93214e-08
2.7639e-06
3.09054e-08
4.17332e-06
-2.66311e-06
-7.16844e-08
-2.33702e-06
1.91843e-06
2.62143e-06
4.53746e-08
2.75611e-06
-2.74128e-06
-1.48313e-08
-2.43296e-08
-3.81951e-08
2.88756e-07
-2.36383e-06
2.07507e-06
-8.19816e-08
-3.6184e-06
8.65569e-07
1.92693e-07
-2.4288e-06
-2.63499e-06
2.59465e-06
4.03414e-08
2.62825e-06
-2.35227e-07
-1.2257e-06
-1.6322e-06
-3.6841e-06
2.72749e-07
-1.47929e-06
-4.38051e-07
1.22697e-08
2.70712e-06
-2.41103e-06
-2.59483e-06
-2.59877e-06
6.78806e-08
2.53089e-06
3.66789e-06
5.20775e-07
2.11577e-06
1.05723e-06
2.55925e-06
-1.13947e-06
2.67083e-06
-1.51709e-07
6.13624e-06
-4.50667e-06
-4.19749e-06
-1.34599e-06
-1.44106e-06
-3.4345e-08
2.8495e-06
-2.66992e-06
-1.79587e-07
2.70243e-06
6.14665e-08
3.12431e-07
-2.58774e-06
-1.92013e-06
2.20889e-06
2.61785e-06
2.30251e-08
2.05225e-06
9.08222e-07
2.74695e-06
1.02551e-07
2.74518e-06
-2.70591e-06
-3.92656e-08
-1.23842e-06
-1.7432e-06
-1.23977e-07
2.52684e-06
4.6936e-08
-2.91095e-06
2.27601e-06
-1.79298e-06
-3.88485e-08
5.69717e-08
2.22322e-06
-2.41178e-06
1.88562e-07
4.06983e-07
2.33595e-06
3.72273e-06
-3.61987e-06
1.29573e-06
1.6377e-06
-2.62767e-06
2.59756e-06
3.01174e-08
-6.02157e-08
-1.5295e-06
8.39827e-07
6.89669e-07
-2.78378e-08
2.85424e-06
-2.85424e-06
3.23228e-06
-1.87583e-06
-1.35645e-06
-2.3598e-06
-4.00502e-07
1.99249e-06
9.43868e-07
2.73209e-06
1.48675e-08
-2.57472e-06
2.55445e-06
1.64387e-08
-2.57089e-06
2.09002e-06
2.91095e-06
-2.89229e-06
7.31639e-08
3.39777e-06
-3.0118e-06
2.62935e-06
-2.79656e-06
2.61364e-06
-5.91921e-08
2.35884e-06
-2.55369e-06
2.54054e-06
1.31569e-08
1.18054e-07
2.05044e-06
-2.1685e-06
-2.32166e-06
1.91873e-06
-1.73465e-07
2.42678e-06
3.32329e-07
-2.3805e-08
-2.24782e-06
-3.91727e-07
-3.36923e-06
2.13081e-06
5.20685e-09
-2.56111e-06
-2.72594e-06
-1.29364e-07
3.64885e-06
-1.96808e-06
2.61712e-08
-4.72524e-07
2.90225e-06
-2.42972e-06
-1.23977e-06
-2.89728e-07
2.54319e-06
-2.57009e-06
2.69016e-08
-2.62935e-06
2.6107e-06
1.13244e-06
1.61541e-06
-2.74785e-06
2.73198e-06
-5.08761e-07
2.25627e-07
2.4301e-06
2.68128e-06
2.63738e-07
2.92648e-07
3.56315e-07
-2.85554e-06
6.28919e-08
-2.26501e-06
2.57744e-06
-1.31284e-06
1.58559e-06
2.41981e-07
-2.37996e-06
2.13798e-06
-1.9975e-08
4.79131e-08
-2.37272e-06
-2.70218e-06
2.65223e-06
4.99443e-08
-2.59014e-06
2.68964e-07
1.69342e-06
1.53886e-06
-1.45778e-06
2.98753e-06
-1.52975e-06
2.99666e-06
-2.79723e-06
-1.99433e-07
7.58805e-08
1.84285e-06
-2.57144e-06
-2.73292e-08
2.60991e-06
3.72899e-09
1.28849e-06
-4.48659e-07
3.32182e-06
-2.98691e-06
2.37563e-06
3.68359e-07
1.49123e-07
-2.64946e-06
4.01645e-07
3.97203e-08
-2.30473e-06
2.95787e-06
-2.39202e-06
2.41136e-06
-1.46654e-07
-2.29607e-06
2.44273e-06
-2.59758e-06
2.70581e-06
-3.2144e-08
-3.93507e-06
3.16135e-07
-1.71383e-08
2.54819e-06
4.93651e-08
-2.40372e-06
-2.64084e-06
2.63018e-06
1.06571e-08
3.1652e-06
-1.84083e-06
-1.32437e-06
-2.2151e-06
-1.99432e-07
2.41454e-06
-5.79095e-09
-2.60801e-06
5.61759e-08
-2.83199e-07
2.78877e-06
-2.50557e-06
-2.55638e-06
2.56918e-06
-3.7118e-06
-5.40966e-07
-3.58905e-06
3.49884e-06
9.02113e-08
2.04645e-06
1.03912e-06
2.39517e-06
2.1566e-07
-2.61083e-06
2.54663e-06
-1.04223e-07
2.05141e-06
1.02334e-06
-1.81971e-06
5.79946e-07
-2.57594e-06
2.23614e-06
-2.54472e-06
-3.45715e-06
3.44467e-06
1.24795e-08
3.11987e-06
-2.5048e-06
2.54827e-06
-7.73282e-09
1.56958e-07
-2.3767e-06
2.21974e-06
-3.84184e-08
-3.41873e-06
3.08755e-06
-3.08755e-06
-1.40682e-06
2.64937e-06
-1.24255e-06
-2.54939e-06
2.54939e-06
2.60821e-06
-2.30545e-06
-3.02758e-07
2.42013e-06
5.75916e-07
2.7166e-06
-2.22955e-06
2.68784e-06
-3.00935e-08
-2.10151e-06
-3.36799e-07
2.43831e-06
-3.4152e-06
3.42695e-06
-1.17474e-08
3.15618e-06
-1.90057e-06
-1.25561e-06
4.60222e-07
2.25638e-06
-3.45095e-06
3.4336e-06
1.73451e-08
-9.95323e-10
-2.53161e-08
3.40538e-06
-3.38007e-06
-3.43807e-06
3.43807e-06
-4.08662e-08
2.58406e-06
3.69046e-06
-3.43961e-06
-2.50845e-07
-3.45317e-06
3.42786e-06
3.44996e-06
-3.43249e-06
-1.74702e-08
-2.51331e-06
-5.67814e-08
2.94099e-06
-3.94737e-08
3.4273e-06
-3.38782e-06
3.42833e-06
-3.43482e-06
6.48872e-09
-2.5924e-06
3.41039e-06
-5.00107e-09
-2.638e-06
2.61459e-06
2.34116e-08
-3.40977e-06
3.4222e-06
-1.2425e-08
2.61175e-06
-2.54387e-06
-3.44404e-06
3.40457e-06
2.64211e-06
-8.40946e-07
1.25785e-06
1.6444e-06
-1.90828e-06
-1.46095e-06
-3.43212e-06
3.43212e-06
-3.44784e-06
-5.33037e-09
3.19152e-06
-5.85542e-07
-2.60598e-06
-2.24719e-06
1.52705e-06
8.59411e-08
3.41593e-06
-3.42658e-06
1.06469e-08
2.51404e-06
-2.51277e-06
-1.27503e-09
3.52235e-06
-3.43075e-06
-9.15959e-08
3.39798e-06
1.79454e-08
3.39175e-06
3.55428e-08
-7.10961e-09
-2.54228e-06
-3.14319e-06
1.72987e-06
1.41331e-06
-2.53868e-06
2.55512e-06
3.40887e-06
-1.0882e-08
3.57492e-07
2.31334e-06
1.83363e-06
-7.01187e-07
-3.43915e-06
-4.8908e-09
2.80435e-06
1.66346e-06
-2.83472e-06
-4.32959e-07
-3.50211e-06
2.56042e-06
-2.57611e-06
1.5689e-08
-1.18839e-07
-3.47021e-06
2.66595e-06
-2.98586e-08
2.96243e-06
-2.02577e-06
-9.36666e-07
-2.56541e-06
3.41412e-06
-3.41412e-06
2.44529e-06
3.37154e-08
-2.479e-06
2.63064e-06
-3.42132e-06
3.4168e-06
4.52271e-09
3.39691e-06
-3.42984e-06
3.29295e-08
2.15844e-06
-2.85983e-06
-9.19941e-09
-3.39722e-06
3.40642e-06
3.38936e-06
-3.39856e-06
-1.1276e-07
3.6116e-06
-2.71001e-06
2.93783e-06
-3.07432e-06
2.13312e-06
-5.4007e-08
3.49868e-06
2.93807e-07
1.51439e-06
3.15731e-08
3.15995e-06
-9.47629e-09
2.73438e-06
-2.7249e-06
-2.34518e-08
-3.42944e-06
-2.15074e-08
2.81716e-06
-2.83007e-07
-2.53415e-06
-3.40668e-06
3.40668e-06
1.99766e-06
-1.71903e-06
-3.43491e-06
3.42585e-06
9.05861e-09
2.6238e-06
-2.6238e-06
2.553e-06
-3.89618e-08
3.41134e-06
-3.41683e-06
5.48833e-09
-3.29424e-06
9.00785e-07
2.59351e-09
-2.53413e-06
2.53153e-06
2.74819e-06
-2.29273e-08
3.41833e-06
3.16312e-08
2.07404e-06
3.53617e-07
-2.42765e-06
3.42893e-06
-1.85451e-08
2.66555e-06
-2.66555e-06
3.40718e-06
-3.39525e-06
-1.1928e-08
-2.60647e-06
2.58641e-06
2.00656e-08
3.43312e-06
-3.42275e-06
-1.03651e-08
-3.4124e-06
3.4124e-06
5.10674e-07
2.39047e-06
8.08831e-08
-2.47135e-06
-3.43518e-06
3.42619e-06
8.99351e-09
-1.28626e-08
-2.57322e-06
2.5582e-06
2.2221e-09
3.19224e-06
-6.00954e-07
-2.59128e-06
2.2061e-06
3.39851e-06
-3.40793e-06
9.41657e-09
2.62777e-06
2.80476e-06
3.95344e-08
2.40575e-06
3.48495e-06
-6.66208e-08
3.38722e-06
1.12961e-08
2.49364e-06
-2.49364e-06
-1.31284e-06
3.44653e-06
-3.41936e-06
-1.04783e-08
3.41773e-06
-3.40489e-06
-1.2832e-08
6.72041e-08
-3.4827e-06
3.4155e-06
3.58701e-07
-3.44625e-06
-3.42896e-06
3.42302e-06
5.94845e-09
2.47577e-06
-2.4742e-06
-1.57837e-09
2.60821e-06
-2.30178e-06
2.30178e-06
3.39415e-06
-6.93469e-09
-2.54454e-06
-2.3767e-06
2.39517e-06
2.64135e-06
-2.7771e-08
-7.79686e-09
2.70726e-07
-3.37086e-06
3.41706e-06
-3.41825e-06
1.18931e-09
8.08735e-08
2.3949e-06
7.92507e-08
2.73791e-06
2.57191e-06
-1.89059e-08
-3.42144e-06
3.41737e-06
4.06895e-09
3.3912e-06
-3.40089e-06
9.69034e-09
-3.41817e-06
-1.67333e-08
3.40902e-06
-3.39997e-06
-9.0461e-09
2.57448e-06
4.93192e-08
3.41096e-06
1.48832e-08
-4.37701e-09
3.40348e-06
1.38958e-08
-5.2636e-10
-2.52224e-06
-3.45532e-06
3.659e-08
-2.55713e-06
2.55713e-06
3.30865e-08
3.15915e-06
-2.59869e-06
4.97186e-07
1.80848e-08
3.41025e-06
1.42765e-07
-2.46131e-06
2.31855e-06
2.40376e-08
3.41403e-06
3.2575e-06
-3.55237e-06
2.57317e-06
9.23742e-08
3.38936e-06
-2.59916e-08
2.41646e-06
-2.48578e-06
1.15876e-08
2.4502e-06
-3.76164e-07
-3.39784e-06
3.39784e-06
-3.41597e-06
-1.92113e-08
2.30545e-06
-2.38818e-06
8.27241e-08
-3.41403e-06
2.51535e-06
-2.51275e-06
3.40928e-06
1.69114e-08
-3.41078e-06
-3.03569e-06
2.11396e-06
-3.42555e-06
3.41981e-06
5.74517e-09
2.32685e-06
2.19787e-07
2.53413e-06
1.52585e-08
-3.38673e-06
3.41013e-06
-2.34013e-08
-2.57506e-06
2.5524e-06
2.26617e-08
-3.39756e-06
1.08297e-08
2.5628e-06
-4.60326e-09
1.40591e-07
-2.64824e-06
2.50765e-06
3.39686e-06
-3.412e-06
1.51446e-08
2.76326e-06
-2.89262e-06
3.39646e-06
-3.39608e-06
-3.78068e-10
-2.16845e-06
2.16845e-06
-2.67213e-06
2.67213e-06
-3.39252e-06
-5.03913e-09
-1.58559e-06
1.87939e-06
-3.40232e-06
3.3973e-06
5.02084e-09
2.67733e-08
3.40534e-06
2.12138e-06
-1.87939e-06
-2.12138e-06
2.23943e-06
2.25037e-06
-2.58716e-06
3.11198e-06
-1.84241e-06
-1.26956e-06
-3.41444e-06
-1.45231e-08
-4.90663e-07
-2.23943e-06
2.73009e-06
3.41012e-06
1.28928e-08
-2.58427e-06
2.39313e-06
3.42002e-06
-3.41308e-06
-6.93746e-09
-3.3998e-06
-2.5611e-06
2.57462e-06
-8.09795e-08
-9.16486e-09
3.41803e-06
3.40351e-06
-2.53153e-06
-3.48476e-06
-2.04633e-06
2.61083e-06
-5.64496e-07
-3.38489e-06
-1.23316e-08
3.39927e-06
4.20479e-09
1.98207e-06
-2.0258e-06
4.37224e-08
3.93716e-09
2.38818e-06
-2.48458e-06
9.64056e-08
1.57395e-06
1.59125e-06
-3.41292e-06
-1.26375e-08
-2.5863e-06
3.38432e-06
-3.38146e-06
-2.85784e-09
3.40878e-06
1.10274e-08
-3.41874e-06
3.41503e-06
3.70056e-09
2.61423e-06
2.57448e-06
-3.39304e-06
3.38554e-06
7.505e-09
3.41698e-06
-3.41545e-06
-1.53176e-09
-2.54197e-06
2.57317e-06
3.39144e-06
-3.39144e-06
1.36123e-08
3.41999e-06
-2.14121e-06
-4.57483e-07
3.39847e-06
-1.61559e-09
-4.35549e-07
2.32061e-06
-1.88506e-06
3.3898e-06
-3.38687e-06
-2.93101e-09
1.04245e-08
3.4037e-06
3.38361e-06
-3.38667e-06
3.05627e-09
-3.42329e-06
-3.4109e-06
-2.05547e-06
2.98611e-09
3.41381e-06
-3.69834e-09
-3.40205e-06
3.40575e-06
-3.39165e-06
3.3842e-06
7.44331e-09
-3.41278e-06
-5.95464e-09
-2.58312e-06
-2.49563e-06
9.84992e-09
3.40925e-06
5.7885e-09
-3.38856e-06
3.38712e-06
1.43455e-09
-3.39087e-06
1.28337e-08
3.37804e-06
3.41178e-06
8.24604e-09
-3.40118e-06
-1.18994e-08
-2.48191e-06
-1.17213e-08
3.41011e-06
-3.41219e-06
2.07871e-09
3.39021e-06
-3.39391e-06
-3.39687e-06
3.39217e-06
4.69673e-09
3.38838e-06
-3.38564e-06
-2.7432e-09
2.55502e-06
2.11272e-09
3.41121e-06
5.76717e-09
-3.40642e-06
-9.02812e-09
-3.41888e-06
2.57462e-06
-3.39022e-06
3.38343e-06
6.79474e-09
2.25047e-06
-2.39713e-06
-3.38065e-06
3.39338e-06
-1.2725e-08
3.39119e-06
-3.39627e-06
5.08617e-09
-8.39474e-09
-3.40947e-06
-3.30966e-09
-8.89343e-09
-3.01075e-06
2.13586e-06
-5.85002e-09
3.39021e-06
-5.65994e-09
-3.67003e-09
-3.41236e-06
2.89015e-09
1.30674e-06
2.8658e-06
-4.17253e-06
-7.06021e-07
3.41009e-06
2.24649e-11
-3.4037e-06
6.35344e-09
3.40033e-06
-3.40569e-06
-6.49839e-09
-2.56349e-06
-3.41577e-06
3.4045e-09
1.20639e-08
3.39928e-06
-5.09979e-10
1.62429e-08
-3.35805e-06
3.34181e-06
3.41484e-06
-3.41311e-06
-1.72888e-09
-2.60922e-06
4.68009e-07
3.40826e-06
-3.4023e-06
-5.96139e-09
-3.41048e-06
-2.5293e-06
-1.33489e-07
3.38768e-06
-3.38499e-06
-2.68686e-09
1.7882e-08
-3.36124e-06
3.34336e-06
-3.41397e-06
3.4076e-06
6.37415e-09
-2.58146e-06
2.55978e-06
2.16774e-08
2.95419e-09
-3.41392e-06
-1.84762e-09
-2.59748e-06
5.39022e-07
2.05846e-06
-3.40949e-06
-4.48191e-09
3.41369e-06
1.15614e-09
-3.40808e-06
-5.0312e-09
-1.36931e-08
-3.41416e-06
2.42535e-10
-2.45565e-06
-2.8359e-07
2.73924e-06
1.96338e-06
1.43813e-08
-3.40033e-06
2.5608e-06
-8.39695e-09
-3.38754e-06
3.38754e-06
-6.56057e-09
3.41206e-06
1.62272e-09
-2.71251e-09
5.35411e-09
5.52061e-09
3.41335e-06
-1.28394e-09
2.00915e-09
3.41245e-06
-3.41248e-06
2.97373e-11
2.46291e-06
-2.46291e-06
-3.40542e-06
3.39807e-06
7.34943e-09
3.39323e-06
-3.38976e-06
-3.46672e-09
-4.82024e-09
3.41122e-06
2.12774e-09
3.41137e-06
1.08283e-09
-1.26418e-09
3.41161e-06
3.40839e-06
-3.41026e-06
1.86598e-09
-3.4413e-06
-3.39748e-06
-7.93767e-09
2.62685e-06
-3.2202e-08
3.40535e-06
3.04014e-09
2.84648e-08
3.40793e-06
-3.40418e-06
-3.74823e-09
-2.43439e-06
2.43439e-06
1.92377e-08
3.39316e-06
-3.38693e-06
3.3924e-06
-5.46588e-09
3.40721e-06
7.20425e-10
2.3195e-08
2.54871e-06
3.40318e-06
-3.40186e-06
-1.31925e-09
-3.37628e-06
-1.06499e-08
3.3937e-06
-3.39647e-06
2.7727e-09
3.40097e-06
2.21402e-09
3.40724e-06
4.13311e-09
-3.37202e-08
-3.36833e-06
-5.02645e-09
-3.00326e-07
-2.28741e-06
3.38825e-06
-3.39154e-06
3.28993e-09
1.00986e-07
2.36192e-06
3.40276e-06
-3.39954e-06
-3.2188e-09
-3.02242e-09
-5.88986e-08
-2.82744e-06
2.88633e-06
-2.46461e-06
2.49289e-06
-2.82803e-08
-3.3723e-06
3.3734e-06
-1.10072e-09
3.3988e-06
3.95522e-09
-3.38869e-06
-2.1169e-06
3.42363e-06
3.40017e-06
-3.39531e-06
-4.85792e-09
-3.40344e-06
3.40352e-06
-8.05971e-11
3.39377e-06
-3.3907e-06
-3.06524e-09
-3.30613e-07
-2.91102e-06
3.24163e-06
3.39665e-06
3.52383e-09
-3.37494e-06
2.63899e-09
3.40067e-06
-3.39632e-06
-4.34708e-09
2.55502e-06
-2.61633e-06
2.61633e-06
3.39939e-06
-3.39296e-06
-6.43516e-09
-6.61166e-09
3.40076e-06
-5.36384e-09
-2.55843e-06
3.39455e-06
4.8412e-09
-3.40311e-06
-6.38291e-09
-3.3697e-06
3.37152e-06
-1.81898e-09
3.4035e-06
1.8561e-09
5.78639e-08
3.36909e-06
-6.84938e-10
3.40038e-06
8.64284e-09
2.54754e-06
1.32546e-08
4.06507e-10
-3.37308e-06
3.3839e-09
2.59469e-07
9.50652e-09
1.09484e-07
3.39061e-06
-3.39378e-06
3.17148e-09
-3.36612e-06
3.37007e-06
-3.94388e-09
6.1222e-08
-2.55146e-06
2.49024e-06
4.55978e-07
-2.65691e-06
2.20093e-06
9.70763e-07
2.41008e-06
-2.41008e-06
3.38821e-06
-3.38821e-06
-2.78382e-06
1.55035e-09
-3.39459e-06
2.60012e-06
3.39953e-06
7.67796e-09
-6.40074e-07
-1.19253e-06
1.83261e-06
-3.37109e-06
4.96521e-09
-3.37282e-06
-1.0988e-07
1.44137e-06
-2.37762e-06
9.36248e-07
-2.32884e-09
2.3149e-08
3.37023e-06
7.49008e-09
2.55531e-06
-3.40445e-06
7.18378e-09
3.39066e-06
2.16299e-06
-2.63936e-06
4.7637e-07
2.20046e-06
-7.59089e-07
-4.25706e-09
-3.38739e-06
3.40501e-06
-3.38186e-06
-3.39514e-06
-3.36168e-06
3.35847e-06
3.20381e-09
7.82423e-10
3.39652e-06
3.38468e-06
3.53474e-09
3.09286e-06
-2.05355e-06
-1.03932e-06
-1.10943e-08
2.58427e-06
3.39556e-06
5.4046e-09
3.09205e-06
-3.42267e-06
2.31086e-08
3.37012e-06
-4.01629e-09
-3.38621e-06
-3.36567e-06
3.98944e-09
-2.47139e-06
6.78211e-09
2.59769e-06
-2.08309e-06
-5.14597e-07
3.3786e-06
-3.37888e-06
2.74794e-10
-3.97735e-09
9.75203e-07
-1.37048e-06
-1.2831e-06
2.65358e-06
3.38496e-06
-3.39015e-06
5.19003e-09
2.69204e-06
-2.65833e-06
-8.63953e-09
2.58312e-06
-2.2179e-06
1.57783e-06
3.38153e-06
-3.38491e-06
3.38088e-09
3.40103e-06
-3.37792e-06
-2.54814e-06
8.5236e-08
-2.55779e-06
2.55413e-06
3.66028e-09
2.48458e-06
-2.54348e-06
5.42536e-08
3.36794e-06
-2.58278e-06
2.50195e-06
-9.1169e-08
3.39568e-06
-3.39156e-06
-4.1194e-09
2.64333e-06
-2.52477e-06
-1.1856e-07
3.38468e-06
-2.05151e-09
-3.38651e-06
-2.50373e-06
8.09484e-09
3.14168e-07
1.92295e-06
-2.23712e-06
-3.35738e-06
3.35372e-06
3.65779e-09
3.37926e-06
1.19283e-08
-2.13958e-06
-4.47588e-07
2.4757e-08
3.36901e-06
3.38996e-06
-3.39795e-06
7.98109e-09
3.38587e-06
-6.23658e-09
-3.37522e-06
-2.6428e-06
-4.4623e-07
3.39173e-06
7.07608e-09
3.60741e-06
-7.41617e-07
-2.07385e-08
3.38848e-06
-3.36775e-06
3.38683e-06
3.1354e-09
-3.36222e-06
4.84158e-09
-3.37172e-06
-2.43597e-08
-6.43123e-09
3.3431e-06
-3.33667e-06
4.4189e-09
3.38702e-06
3.40149e-06
-3.37673e-06
-3.39066e-06
-1.1682e-08
2.5863e-06
-3.58504e-09
2.56436e-06
-1.30906e-07
-2.43345e-06
3.47725e-08
2.52958e-06
-3.34791e-06
3.34148e-06
-3.39011e-06
-7.37001e-09
2.15206e-06
4.45632e-07
-1.26732e-08
2.62183e-06
-2.60916e-06
-2.17242e-06
-1.81672e-06
2.13088e-06
-2.83264e-06
3.51479e-07
2.48116e-06
3.38555e-06
2.60269e-09
-3.38948e-06
3.38568e-08
3.37115e-06
3.38051e-06
-3.38102e-06
5.09957e-10
3.3879e-06
-3.37779e-06
-1.01088e-08
-3.39245e-06
2.28651e-09
-4.87865e-09
-2.56029e-06
2.56517e-06
5.14319e-10
3.39166e-06
-2.35248e-06
6.89169e-07
-3.38808e-06
3.38614e-06
1.94041e-09
-3.35266e-06
3.34864e-06
4.02077e-09
3.33779e-08
2.76708e-06
-2.6862e-06
2.03151e-06
-4.94376e-08
-1.77648e-08
3.39039e-06
-3.37262e-06
-3.02204e-06
1.65156e-06
3.38437e-06
2.99825e-09
-3.38864e-06
3.38786e-06
8.78575e-09
-3.16554e-06
3.11734e-08
3.13437e-06
5.3558e-09
-3.35802e-06
3.38122e-06
-3.37767e-06
-3.55033e-09
-1.07829e-07
3.40131e-06
-3.29348e-06
-5.09755e-09
-6.96396e-07
3.18336e-06
-2.48697e-06
-2.54814e-06
-2.81528e-06
3.38335e-06
-1.82358e-09
2.98917e-08
3.37114e-06
3.29969e-06
3.4156e-06
-3.41344e-06
-2.16144e-09
8.23967e-10
-2.5659e-06
2.56507e-06
-3.38533e-06
3.38302e-06
2.30671e-09
6.86652e-08
-2.55058e-06
2.48191e-06
3.38979e-06
-3.38842e-06
-1.37315e-09
-2.6246e-06
2.61193e-06
3.37983e-06
-3.37722e-06
-2.61395e-09
9.50484e-09
3.37839e-06
-3.92274e-08
3.39779e-06
-3.38742e-06
3.28616e-08
-2.49765e-06
3.38733e-06
-3.38673e-06
-6.0392e-10
3.38563e-06
1.97452e-09
-3.38697e-06
3.36827e-06
7.11478e-09
-3.37539e-06
8.14678e-10
3.38774e-06
-3.37824e-06
-8.22242e-09
-2.56534e-06
2.57356e-06
1.8199e-06
-2.67687e-06
8.56969e-07
-5.66651e-07
-2.59889e-06
-2.4901e-06
-5.57719e-07
-2.18338e-06
-3.3836e-06
1.96328e-08
3.36397e-06
-2.58083e-06
2.56534e-06
1.54953e-08
-7.85128e-07
-2.0747e-06
-3.38176e-06
3.01909e-06
-3.37479e-06
3.38077e-06
-5.97981e-09
-2.81972e-06
2.79541e-07
2.54018e-06
2.69553e-06
-2.07078e-06
-6.2475e-07
-3.38669e-06
6.83797e-09
3.37985e-06
2.56986e-06
-2.53742e-06
7.12839e-09
3.37409e-06
-3.38702e-06
3.4603e-09
3.38408e-06
3.3835e-06
1.10538e-08
-5.71162e-10
-3.38609e-06
-1.1085e-08
-3.377e-06
-3.3782e-06
2.56704e-06
-2.53587e-06
-1.44475e-08
7.23971e-07
2.23846e-06
-2.31364e-06
2.31364e-06
2.95291e-08
3.37196e-06
-3.83901e-06
-3.12332e-06
3.12414e-06
3.38814e-06
2.56498e-06
-2.54584e-06
-3.38302e-06
3.37193e-06
-2.86029e-06
2.92896e-06
3.3806e-06
-3.37764e-06
-2.95968e-09
4.1368e-09
3.38412e-06
-3.42369e-06
2.57581e-06
-2.58403e-06
-3.38199e-06
5.71027e-09
1.27472e-06
3.3903e-06
-3.38619e-06
-4.11993e-09
-3.38808e-06
3.38078e-06
-3.37796e-06
-2.81955e-09
-3.38023e-06
-3.37245e-09
3.37296e-06
-3.36261e-06
-2.58577e-06
3.10895e-06
3.37785e-06
-3.37676e-06
-1.08777e-09
-5.97829e-09
3.37425e-06
-2.58083e-06
2.23733e-06
-2.42425e-06
1.86917e-07
-4.16428e-06
4.16428e-06
3.38655e-06
3.3872e-06
-8.59337e-09
5.72044e-09
-3.38608e-06
3.39803e-06
-1.1946e-08
3.37975e-06
-3.37691e-06
-2.83863e-09
-2.80435e-06
2.67086e-06
1.05303e-08
3.37795e-06
-3.38662e-06
9.18578e-09
3.37744e-06
-3.37664e-06
3.38394e-06
-3.37941e-06
-2.59358e-06
-3.38382e-06
1.1361e-08
3.37246e-06
-2.59701e-06
-7.36171e-09
2.53437e-06
-2.55314e-06
1.87678e-08
3.37531e-06
-3.37815e-06
2.8444e-09
6.29799e-08
-3.38377e-06
3.37813e-06
5.63556e-09
3.38188e-06
-2.47999e-06
-2.46289e-06
-4.08429e-08
3.38599e-06
-3.38599e-06
-1.71709e-08
2.57219e-06
-3.38408e-06
3.37912e-06
-3.37628e-06
-2.83414e-09
3.3854e-06
-1.89366e-08
-3.38104e-06
-2.51763e-06
-3.09801e-07
-2.58379e-06
2.02189e-06
-2.25862e-06
2.36727e-07
-5.05527e-07
-2.18484e-06
2.69037e-06
3.37285e-06
-3.36389e-06
2.19e-06
-2.55146e-06
-7.34335e-09
-3.37935e-06
3.38095e-06
-3.37814e-06
-2.80678e-09
2.59758e-06
-2.61067e-06
-7.13317e-07
-4.72624e-07
1.18594e-06
-2.69395e-06
2.7166e-06
2.60696e-06
-2.57219e-06
-1.01452e-08
-2.52818e-06
2.53832e-06
-1.28133e-08
-2.5085e-06
2.52131e-06
8.47952e-09
-2.63068e-06
2.6222e-06
2.40934e-08
-2.64104e-06
2.61694e-06
1.23211e-08
-2.58704e-06
2.57472e-06
-4.65794e-09
-2.53245e-06
2.53711e-06
-4.95857e-09
-2.53042e-06
2.53538e-06
1.52181e-06
-1.02557e-06
-4.96242e-07
2.24588e-06
1.66228e-08
3.37377e-06
2.47453e-06
-2.49014e-06
1.56065e-08
7.94776e-09
-3.3796e-06
3.37165e-06
3.3884e-06
-3.3884e-06
3.34351e-06
-6.00335e-10
-3.34291e-06
-1.13894e-08
-3.37163e-06
3.37886e-06
-3.37591e-06
-2.9487e-09
-2.1003e-06
-2.75735e-06
-6.23678e-08
2.21451e-06
4.28818e-07
3.38573e-06
-3.38107e-06
-4.65065e-09
-2.57715e-06
2.67921e-06
1.12693e-08
3.37648e-06
-1.85842e-06
-1.16362e-06
2.58637e-08
2.42505e-06
-2.45091e-06
-1.73178e-06
-2.94013e-07
-5.81048e-07
-3.59039e-07
9.40087e-07
2.54323e-06
2.54361e-06
2.65443e-06
2.65474e-06
2.63625e-06
2.60141e-06
-1.19349e-08
-2.54919e-06
2.56112e-06
2.55117e-06
-3.62988e-09
-1.00372e-06
3.37996e-06
-3.37201e-06
-8.38489e-08
2.71907e-06
-3.38998e-06
-2.31379e-06
2.8626e-06
3.33932e-06
2.52922e-09
-3.34185e-06
3.39287e-06
-6.88786e-09
-3.38554e-06
1.2215e-08
3.37333e-06
-2.5531e-06
-2.56029e-06
2.5596e-06
-2.57154e-06
-2.32945e-06
2.81219e-06
-4.82739e-07
-6.07016e-09
-3.37775e-06
1.76628e-06
-2.20182e-06
5.57796e-09
-3.38325e-06
-3.37923e-06
-8.98642e-07
-1.31926e-06
-3.3732e-06
-6.40003e-09
2.58998e-06
8.08492e-07
1.97195e-06
3.37557e-06
-3.37297e-06
-2.6072e-09
2.5722e-06
-1.70271e-06
-8.69489e-07
-1.22541e-06
6.44362e-07
-1.42085e-06
3.07241e-06
-1.23126e-06
2.55912e-06
-1.32785e-06
1.15313e-09
3.38381e-06
-3.36063e-06
3.37793e-06
-3.3799e-06
1.96954e-09
-1.91289e-06
8.15266e-07
1.09763e-06
-1.12499e-08
-2.5485e-06
2.55975e-06
3.53775e-06
-1.56501e-06
-1.97274e-06
2.44067e-09
3.34107e-06
-7.35571e-07
-1.17732e-06
-2.46857e-06
2.49444e-06
2.10677e-06
1.39117e-07
-2.45722e-06
-5.16645e-09
-2.55172e-06
2.55688e-06
2.63507e-06
-2.55419e-06
-1.56856e-06
-5.95429e-07
2.16399e-06
-3.37281e-06
3.37379e-06
-9.74725e-10
-2.49323e-06
2.52609e-06
3.37647e-06
-3.37867e-06
-2.25758e-06
-5.60582e-08
-3.40169e-06
3.38886e-06
-1.76114e-06
2.54274e-09
3.37822e-06
2.94578e-06
-1.62799e-06
-1.31779e-06
2.49251e-06
-4.70621e-07
2.78637e-06
-3.61324e-07
2.55574e-06
-2.56699e-06
3.37194e-06
-3.37205e-06
1.03168e-10
2.55798e-06
-2.56315e-06
3.09968e-09
-3.37016e-06
3.36706e-06
-1.42133e-06
-3.3981e-07
7.75966e-09
-2.59353e-06
-3.37973e-06