/*--------------------------------*- C++ -*----------------------------------*\
  =========                 |
  \\      /  F ield         | OpenFOAM: The Open Source CFD Toolbox
   \\    /   O peration     | Website:  https://openfoam.org
    \\  /    A nd           | Version:  12
     \\/     M anipulation  |
\*---------------------------------------------------------------------------*/
FoamFile
{
    format      ascii;
    class       volVectorField;
    location    "0.23";
    object      U;
}
// * * * * * * * * * * * * * * * * * * * * * * * * * * * * * * * * * * * * * //

dimensions      [0 1 -1 0 0 0 0];

internalField   nonuniform List<vector> 
4428
(
(0.00174969 0.000663554 1.01427e-16)
(-0.00177211 0.000730594 -9.03817e-17)
(-0.00159718 0.000731255 0)
(-0.00166642 0.00070206 0)
(0.00160421 0.00132673 8.16381e-17)
(0.00165342 0.00135809 3.21291e-21)
(-0.00159226 0.000906861 0)
(-0.0017878 0.00063807 1.46409e-16)
(0.00171236 0.000696167 -2.49062e-16)
(0.00176465 0.000516238 9.95363e-17)
(-0.00161971 0.000566366 -1.73328e-16)
(0.00164392 0.00068411 -1.7686e-16)
(-0.00183334 0.000393471 -2.03656e-16)
(-0.000575645 0.00205822 -9.58143e-17)
(0.00172266 0.000670176 0)
(0.00156929 0.000579623 0)
(0.00177267 0.000636218 0)
(-0.00162089 0.00056447 0)
(-0.00184472 0.000392066 0)
(0.00174006 0.000673523 0)
(0.000620317 0.000508743 -4.48033e-16)
(-0.00176369 0.000676985 -1.77699e-16)
(-0.00166658 0.000706601 0)
(-0.00180745 0.000622844 0)
(-0.0017555 0.000669649 2.26614e-17)
(-0.00166716 0.000620925 0)
(-0.00168292 0.000885181 1.03355e-16)
(0.00168821 0.000555 2.07801e-16)
(0.00157401 0.000773885 0)
(-0.00185264 0.000433298 0)
(0.00171091 0.000428639 0)
(-0.0017843 0.000675708 -1.84201e-16)
(0.00174277 0.000554053 -9.00183e-17)
(-0.0018095 0.00087563 -2.77417e-16)
(-9.59578e-06 0.00237941 4.69764e-17)
(-0.00178032 0.000693002 1.99859e-16)
(-0.00174252 0.00087349 -4.43363e-21)
(0.00162081 0.00218478 1.27041e-17)
(-0.000267177 0.00206074 -2.62229e-17)
(-0.00166981 0.000731236 0)
(0.00175142 0.000630886 0)
(0.00160119 0.000518862 0)
(0.00167462 0.000571559 9.24307e-17)
(-0.00181649 0.000586117 1.66055e-16)
(0.00174783 0.000559317 0)
(0.00142943 0.000533203 0)
(0.00167635 0.00159984 -9.97819e-17)
(-0.00166647 0.000804866 2.03141e-16)
(-0.00168975 0.000706009 2.24456e-16)
(-0.00174211 0.000764467 0)
(0.00174509 0.000727766 0)
(0.00156985 0.000744426 1.8812e-16)
(0.00177815 0.000508624 -9.13172e-17)
(0.00159149 0.000762929 0)
(0.0016234 0.000684329 -1.39782e-17)
(0.00104521 0.000502363 0)
(0.00154894 0.000733704 -9.29914e-17)
(-0.00171012 0.000563843 0)
(0.00145673 0.00156045 1.82957e-16)
(0.00170693 0.000589883 -1.82008e-16)
(0.00178452 0.000686813 1.67094e-16)
(-0.00178046 0.000568382 0)
(0.00155682 0.000621245 2.79949e-16)
(-0.00178012 0.000672371 9.26969e-17)
(-0.00177648 0.00069437 0)
(0.00163763 0.000720038 0)
(-0.00181589 0.000596659 1.73155e-16)
(-0.00168022 0.000715747 -1.85818e-16)
(0.0016903 0.000604055 -1.82183e-16)
(-0.00171755 0.000747584 -3.61904e-16)
(-0.00182283 0.000571818 -9.16118e-17)
(0.00171904 0.000781517 2.1265e-16)
(0.00185689 0.000807487 5.80495e-17)
(-0.0016549 0.000687723 4.46947e-17)
(0.00174318 0.00060864 1.96646e-16)
(-3.05936e-05 0.00235669 -1.83292e-16)
(0.00177579 0.000811676 0)
(0.00182777 0.000707631 0)
(-0.00160761 0.000913182 -1.18142e-16)
(0.00125428 0.000597448 -4.36726e-21)
(0.00155943 0.000798719 -1.97536e-16)
(-0.00181008 0.000574193 0)
(0.00168308 0.000803141 -1.81061e-16)
(0.00169127 0.000698237 -1.72064e-16)
(0.00177497 0.000633015 3.18301e-16)
(-0.00193 0.000620799 -2.54684e-16)
(-0.000221704 0.00264227 1.15141e-16)
(-0.00180759 0.000661501 0)
(-0.0017756 0.000679441 -9.60327e-17)
(0.00162529 0.000712985 2.04739e-17)
(0.00174462 0.000526477 8.36639e-17)
(0.00178914 0.00064048 -1.59366e-16)
(-0.00179261 0.000713599 0)
(-0.00176792 0.00065744 0)
(-0.00177615 0.00069516 9.8168e-17)
(-0.00172718 0.000718958 1.67118e-16)
(0.00174929 0.000695712 1.13529e-16)
(-0.00179327 0.000680673 -1.19901e-16)
(-0.0018249 0.000567112 9.28694e-17)
(0.00164672 0.000876979 0)
(0.00165656 0.000749989 -2.25138e-17)
(0.00171019 0.000669253 0)
(0.00175275 0.000618946 0)
(0.00158524 0.000592927 -1.87984e-16)
(0.00153162 0.000713617 -1.037e-16)
(0.0016146 0.000781283 2.49272e-21)
(0.00170284 0.000700919 1.90323e-16)
(-0.00174598 0.000832134 -1.22454e-16)
(0.00174768 0.000695556 -1.2082e-16)
(0.00167508 0.000817425 0)
(0.00170546 0.000569575 1.64694e-16)
(0.00171576 0.000659542 -1.94802e-16)
(-0.00165363 0.000678785 2.65174e-21)
(0.00163305 0.000619315 1.65962e-16)
(-0.00098353 0.000619379 1.15541e-16)
(-0.0018173 0.000556157 1.8023e-16)
(-0.000398023 0.00229079 0)
(0.00070699 0.00055052 5.24743e-17)
(-0.00183908 0.000613599 8.8764e-17)
(0.0018283 0.000706107 -1.12858e-16)
(0.00180978 0.000705834 2.11527e-16)
(-0.00160944 0.000919825 2.41273e-16)
(0.00118687 0.00194194 -1.96893e-16)
(0.00172814 0.000559468 -3.03615e-16)
(-7.67851e-06 0.0023798 1.78756e-16)
(-0.00178132 0.000672217 0)
(-0.00180709 0.000611003 -2.72254e-16)
(0.00164449 0.000682259 9.95078e-17)
(-0.00177739 0.000723829 -3.04097e-16)
(-0.00177869 0.000692002 9.66756e-17)
(-0.00182128 0.000576676 -1.8713e-16)
(-0.00174467 0.000718289 0)
(0.00175601 0.00070123 2.24123e-16)
(0.0016857 0.000629061 0)
(0.00170918 0.000667369 0)
(0.0018264 0.000788972 6.54177e-21)
(0.0017884 0.000746318 -2.43666e-16)
(-0.00181348 0.000563237 -1.82386e-16)
(-0.00178262 0.000689982 -1.83548e-16)
(-0.00176576 0.000715715 1.43947e-16)
(-0.00175336 0.000841682 -1.23705e-16)
(-0.00178478 0.000645179 -9.67473e-17)
(0.00168246 0.000673713 0)
(0.00169148 0.000690355 -1.99427e-16)
(0.00177258 0.000665314 0)
(0.0016695 0.000640857 9.67636e-17)
(0.00179002 0.000800191 1.28472e-16)
(-4.64869e-05 0.00169038 -9.13938e-17)
(0.00186925 0.000523192 2.88885e-16)
(-7.22733e-07 0.00237364 4.54402e-17)
(-0.00178016 0.000672084 -1.99511e-16)
(-0.00116066 0.00051471 1.00283e-16)
(0.00166772 0.000551684 -9.60254e-21)
(0.00185659 0.000643322 -2.4862e-16)
(-0.00177749 0.000691708 2.91591e-16)
(0.00180742 0.000676584 0)
(0.00163228 0.00110173 -1.77125e-16)
(0.00176015 0.0005274 -9.48473e-17)
(0.00172067 0.000634887 -1.78765e-16)
(-0.00179559 0.000589055 -9.12334e-17)
(-0.00177021 0.000735139 1.95445e-16)
(0.00172777 0.000682291 0)
(0.00185167 0.000583278 0)
(-0.000624218 0.000279256 -2.17177e-16)
(-0.00188505 0.000781858 1.19562e-16)
(-0.00181497 0.000568516 0)
(-0.00177495 0.000650641 0)
(0.00184861 0.000618299 0)
(-0.00177295 0.000687537 1.90742e-21)
(-0.00179092 0.000766367 9.36777e-17)
(-0.00181987 0.000600218 -9.37987e-17)
(0.00178546 0.000706007 3.96166e-21)
(-0.0017906 0.000676124 0)
(0.0016169 0.000679264 0)
(0.00164247 0.00212774 -1.16372e-17)
(-0.00190581 0.00079365 2.29075e-16)
(0.00179355 0.000649984 0)
(0.00157334 0.000783915 2.14587e-16)
(0.0016764 0.000703907 2.17938e-16)
(-0.00190491 0.000770413 1.14317e-16)
(-0.000206544 0.0023977 -7.08495e-21)
(-0.0017173 0.000704232 1.75077e-16)
(-0.00179347 0.000629322 1.91949e-16)
(0.00163729 0.000631909 0)
(-0.00177934 0.000672475 3.00569e-16)
(-0.00177408 0.000817742 -9.52162e-17)
(0.00176453 0.000682517 0)
(-0.00177509 0.000690581 0)
(0.00150209 0.000655547 3.43568e-16)
(0.00173068 0.000765114 0)
(0.00172029 0.000628965 0)
(0.00179899 0.000855357 2.58467e-17)
(0.00174919 0.000623593 0)
(0.00177843 0.000737415 -3.67869e-16)
(-0.00173015 0.000809462 0)
(-0.00172161 0.000798544 -1.80866e-16)
(-0.00172134 0.000796384 2.70922e-16)
(-0.00169593 0.000782335 8.88769e-17)
(0.00241881 0.0014004 1.48756e-16)
(-0.000538183 0.0025383 0)
(0.00175511 0.000798642 2.13762e-16)
(-0.00179189 0.00064884 -1.94079e-16)
(0.00137994 0.000738597 -1.90307e-16)
(-0.0018021 0.000587358 0)
(0.00159985 0.000615547 -1.7663e-16)
(0.00173575 0.000609877 -2.98056e-18)
(-0.00176938 0.000689039 9.32575e-17)
(-0.00039294 0.00274865 -1.77906e-16)
(-0.000856015 0.00238124 1.1184e-17)
(0.00117745 0.000619376 0)
(0.001774 0.000759542 0)
(0.00190245 0.000683396 0)
(0.00176895 0.000743675 5.94879e-21)
(-0.00178893 0.00063039 0)
(0.00172738 0.000658577 0)
(-0.00174189 0.000791638 -1.40088e-16)
(-0.00172316 0.000780306 1.83783e-16)
(3.22167e-05 0.00237663 -1.84691e-16)
(-0.00167351 0.000632497 1.99297e-16)
(-0.00171403 0.000791753 -4.5359e-17)
(0.00176952 0.000734643 1.95363e-16)
(0.00184429 0.000646418 -6.1511e-17)
(-0.00176548 0.000686838 1.85468e-16)
(0.00180289 0.000776388 0)
(-0.00172971 0.000797207 0)
(-0.00177923 0.000673469 0)
(-0.00180596 0.00068709 -1.08726e-16)
(0.00171996 0.000620123 -1.93042e-16)
(0.00164334 0.000687014 3.73824e-21)
(-0.00177448 0.000690479 0)
(-0.00178089 0.000647314 9.83235e-17)
(-0.0010935 0.0021699 0)
(0.00149566 0.000890014 0)
(0.000260824 0.00262076 8.61736e-17)
(0.00167371 0.000670139 5.74624e-17)
(-0.00173961 0.000772926 0)
(-0.00173104 0.000787092 0)
(-0.00172992 0.000782118 1.88216e-16)
(-0.00173705 0.000779542 -1.86173e-16)
(-0.00179877 0.000597095 2.97767e-16)
(-0.000175554 0.000436341 5.13887e-17)
(-0.00180533 0.000690211 -5.90059e-17)
(-0.00171079 0.00078119 6.23696e-17)
(0.0017375 0.000682086 2.23734e-17)
(-0.00178597 0.000635672 -9.62579e-17)
(-0.000489449 0.0017758 -1.01155e-16)
(-0.0017663 0.000842887 1.89325e-16)
(-0.001788 0.000638394 1.92815e-16)
(0.00205837 0.00137656 0)
(-0.000199767 0.00179377 0)
(-0.00186 0.000771562 6.11284e-21)
(0.0016884 0.000672028 2.04394e-16)
(0.00178768 0.000727807 -1.05649e-16)
(-0.00172634 0.00078056 1.81887e-16)
(0.00155318 0.000578768 -1.31317e-16)
(0.000304039 0.000207295 1.07918e-16)
(-0.00173207 0.000782645 -3.65586e-16)
(3.67238e-05 0.00236077 0)
(-0.00202487 0.000737126 -3.66784e-17)
(-0.00174342 0.00077929 -2.11761e-16)
(-0.0017373 0.000780079 1.90018e-16)
(-0.000615065 0.000311976 2.17218e-16)
(-0.00177912 0.00065148 0)
(0.00186407 0.000412137 1.23012e-16)
(-0.00172984 0.000778077 -9.37843e-17)
(-0.0017681 0.00068711 -1.00072e-16)
(0.00176522 0.000640087 0)
(-0.00173316 0.000781584 0)
(-0.0011979 0.0026241 1.37275e-16)
(-0.00183544 0.000619864 -1.83736e-16)
(0.00172358 0.000595806 0)
(0.00180201 0.000812354 2.37177e-16)
(0.00172454 0.000687128 1.23124e-17)
(-0.00036441 0.00191809 2.58439e-16)
(-0.00178052 0.000673083 0)
(0.00167533 0.00070789 1.98131e-16)
(0.00173987 0.000666538 -2.63561e-16)
(-0.00178265 0.000646204 1.94296e-16)
(0.00182927 0.000861015 0)
(0.000291923 0.00020428 -1.10465e-16)
(-0.00191201 0.00080016 -2.35924e-22)
(-0.00032489 0.00244784 9.63401e-17)
(0.00173129 0.000645863 0)
(-0.00179547 0.000604849 -2.99175e-16)
(0.00160016 0.000910277 3.93344e-16)
(0.001573 0.000923093 -9.12435e-17)
(0.00174748 0.000683577 -1.3295e-17)
(0.00174851 0.000588518 -1.26246e-16)
(0.00174753 0.000689769 1.94436e-16)
(0.00176793 0.000649891 0)
(-0.0019534 0.000600986 1.43577e-16)
(-0.00184321 0.000599852 -1.87091e-16)
(-0.00174421 0.000768357 -7.47193e-19)
(0.00165768 0.000789219 0)
(0.00162345 0.000697285 2.1467e-16)
(0.000559108 0.000207153 2.31985e-16)
(-0.00176959 0.000660344 1.95533e-16)
(-0.00172813 0.000776559 2.07962e-16)
(-0.00176669 0.00079351 0)
(-0.00109334 0.00256199 1.9676e-16)
(-0.00178574 0.000650311 5.91764e-21)
(0.00164755 0.000608106 1.14694e-16)
(-0.00177737 0.000654988 0)
(-0.00173896 0.000778019 -1.18782e-17)
(-0.00173798 0.000783314 0)
(-0.00173712 0.000781478 -1.85911e-16)
(-0.00179092 0.000691065 0)
(-0.000233942 0.00261456 -1.19591e-16)
(0.00118609 0.000654034 -3.44557e-16)
(0.00173039 0.000861204 1.25596e-16)
(-0.00178246 0.000651392 9.79707e-17)
(0.00170263 0.00067161 0)
(0.00182017 0.000845857 -1.26565e-16)
(-0.000301203 0.00259476 -1.90453e-16)
(0.00107346 0.000361139 -2.23906e-16)
(0.00172546 0.000706679 0)
(0.00177341 0.000774403 0)
(0.00171115 0.000727736 -1.87615e-16)
(-0.00179295 0.000614041 0)
(-0.00177025 0.000675584 1.96569e-16)
(-0.000437132 0.00285497 -6.17601e-18)
(-0.00187741 0.00079164 -1.01491e-16)
(-0.00164808 0.000633988 6.10874e-17)
(0.00169261 0.000655584 3.89322e-16)
(-0.00126316 0.00389785 -1.46075e-16)
(0.00289642 0.00113976 -1.97875e-16)
(0.00164392 0.000731646 -2.12584e-16)
(-0.00175953 0.000679157 9.64302e-17)
(-0.00175967 0.000815528 -1.21773e-17)
(-0.0017237 0.000788803 -1.89494e-16)
(0.0017217 0.000656487 2.09788e-16)
(-0.00176313 0.000671984 0)
(-0.00177802 0.000656615 9.90845e-17)
(-0.00202217 0.0007315 1.50957e-16)
(-0.00178649 0.000841519 0)
(-0.0017608 0.000797459 0)
(0.00183563 0.000833583 -1.23283e-16)
(0.00163583 0.000636293 0)
(-0.00177517 0.000674888 0)
(0.00165577 0.000615041 0)
(-0.00174026 0.000782588 1.18323e-17)
(-0.00175903 0.000775734 7.54734e-19)
(0.0016096 0.000546694 0)
(0.0017437 0.000662972 1.92889e-16)
(-3.85112e-05 0.00237545 0)
(0.00171464 0.000580627 0)
(-0.00178379 0.000654279 4.92536e-17)
(-0.00179496 0.000643982 -3.01483e-16)
(0.000184973 0.00106024 0)
(-0.00176586 0.000677574 -1.93418e-16)
(-0.00182842 0.000410328 9.23817e-17)
(-0.00182666 0.000721384 -4.26779e-21)
(-0.00190343 0.000647302 -2.43395e-16)
(-0.00202277 0.000717256 1.5116e-16)
(-0.00174179 0.000815216 0)
(-0.00179655 0.00062296 2.02115e-16)
(-0.00176399 0.000677728 1.00295e-16)
(0.00173477 0.000653977 0)
(-0.00174768 0.000609923 1.62545e-16)
(-0.00177007 0.00066485 -2.68739e-16)
(2.45821e-05 0.00231172 0)
(-0.00173348 0.000775958 -2.80436e-16)
(-0.00179535 0.000725674 0)
(-0.00178368 0.000664652 0)
(0.00176645 0.000656064 2.03117e-16)
(-0.0017769 0.000650279 1.01385e-16)
(0.00154476 0.000565262 2.14782e-16)
(0.00176765 0.00070862 -2.03931e-16)
(-0.00125154 0.000603257 0)
(-0.00188624 0.000635354 0)
(-0.0017666 0.000678142 0)
(0.00173036 0.000671966 -2.12708e-16)
(0.00174103 0.000734872 0)
(0.00174136 0.000666793 0)
(-0.00189333 0.000821525 -2.99362e-16)
(0.000232409 0.00234675 2.17984e-16)
(-0.00175046 0.000808704 1.92279e-16)
(0.00178247 0.000551224 -2.15588e-16)
(-1.93304e-05 0.00123657 -6.19432e-17)
(-0.00177604 0.000692648 0)
(-0.00177275 0.000748715 2.99754e-16)
(-0.00170005 0.000793884 -1.80339e-16)
(0.000165685 0.00180855 1.08287e-16)
(0.00182286 0.00039017 0)
(0.00189385 0.000505259 1.14707e-16)
(0.00167125 0.000710005 1.77801e-16)
(-0.000360744 0.000274549 2.10734e-16)
(-0.00176873 0.00065957 -9.03929e-17)
(0.00174564 0.000689207 0)
(0.00108338 0.00040619 0)
(0.0014846 0.000461551 3.86489e-16)
(-0.00176861 0.000679974 0)
(0.0018346 0.000603912 -1.07229e-16)
(-0.00188514 0.000499048 1.26093e-16)
(-0.0017796 0.000677489 9.58118e-17)
(0.00168583 0.000676406 -1.95167e-16)
(-0.00198051 0.000747171 -1.35979e-16)
(-0.00165242 0.000689545 1.84898e-16)
(-0.00193683 0.000891434 1.01008e-16)
(-0.00132199 0.0005163 -1.08943e-16)
(-0.00178441 0.000673854 0)
(-0.00177636 0.000675765 0)
(-0.000104261 0.000889689 0)
(-1.02873e-05 0.00230701 -2.50979e-16)
(-0.00190044 0.000675206 0)
(-0.00179577 0.000877794 -8.72301e-17)
(0.00171933 0.000671069 3.76162e-16)
(0.00165313 0.000700263 -1.11175e-16)
(0.00172051 0.000620059 3.79528e-16)
(0.00174308 0.000735942 -5.49152e-17)
(0.0017329 0.000658335 -5.54943e-21)
(-0.00176078 0.000709044 -4.91288e-17)
(-0.00176616 0.000684993 -9.63665e-17)
(-0.000143812 0.00272851 5.97387e-18)
(-0.00177204 0.000682009 -1.95296e-16)
(-0.00176062 0.000735556 -5.1503e-17)
(0.00165603 0.000717825 0)
(-0.00177544 0.000681197 -9.75867e-17)
(-0.00187237 0.000688587 -3.58919e-16)
(-0.00171981 0.000773516 -1.39394e-17)
(-0.00178517 0.00066804 0)
(-0.00179957 0.000588859 4.83495e-17)
(-0.00177552 0.000657515 -9.87665e-17)
(0.00188576 0.000830982 -2.08722e-16)
(-0.00176252 0.000698167 -9.94714e-17)
(0.000234351 0.00261494 6.96545e-18)
(0.00169175 0.000617971 2.44311e-17)
(-5.04279e-05 0.00259204 -1.98858e-16)
(-0.0019675 0.000796833 2.8235e-16)
(-0.00171552 0.000579152 -3.98528e-16)
(0.00173189 0.000668587 1.03054e-16)
(-0.00197106 0.000797381 1.25935e-16)
(0.000264763 0.00135866 8.11329e-17)
(-0.00175682 0.000696091 1.97979e-16)
(0.00168114 0.000579847 1.7667e-16)
(-1.92414e-05 0.00254396 0)
(-4.9401e-05 0.00228004 -2.83924e-16)
(-0.0017637 0.000728347 -1.57227e-16)
(0.00170482 0.000582082 -5.19583e-17)
(-1.99495e-05 0.00253728 7.90268e-19)
(0.00207321 0.000823966 9.76704e-17)
(-0.0016351 0.000652061 2.95296e-16)
(-0.00178086 0.000676533 -5.09883e-17)
(-0.00180102 0.000644452 0)
(-0.00185239 0.000685835 2.2903e-16)
(0.00170934 0.00069014 -2.02295e-16)
(-0.00176642 0.000686899 -9.6801e-17)
(0.00171168 0.000672086 0)
(-4.12647e-06 0.00252309 -2.01871e-16)
(-0.00186023 0.00071766 1.20768e-16)
(0.00198575 0.00178305 -3.66324e-16)
(0.00175411 0.000666948 0)
(-1.1297e-05 0.00252358 0)
(0.00180142 0.000723201 5.95488e-21)
(7.21739e-06 0.00251645 -2.02109e-16)
(3.97226e-06 0.0025217 4.01901e-16)
(-0.00176091 0.000690632 4.9849e-17)
(-0.00015678 0.00259747 1.97706e-16)
(-6.75286e-06 0.0025144 0)
(-1.63169e-05 0.00252637 2.01155e-16)
(-0.00176274 0.00068715 0)
(0.00202296 0.00114213 0)
(8.00628e-06 0.00251973 0)
(-3.95358e-06 0.00251932 -2.01438e-16)
(-0.00175643 0.000719464 0)
(-8.89264e-06 0.0025213 4.0527e-16)
(-0.00177686 0.000672596 0)
(-3.74201e-06 0.0025209 -2.02418e-16)
(-0.00176408 0.000686935 -2.93182e-16)
(-4.49054e-06 0.00251278 0)
(-0.00174655 0.000723654 9.67023e-17)
(-0.000792828 0.00288595 -4.71362e-17)
(0.00183975 0.00081355 2.50256e-16)
(0.00186575 0.000702475 0)
(5.04161e-07 0.00251818 1.45278e-20)
(-9.82752e-06 0.00252254 -1.99388e-16)
(-0.0017887 0.000598545 -8.51744e-17)
(0.00168821 0.000754859 -2.05743e-16)
(0.00154434 0.000624779 0)
(0.00172254 0.000659606 3.10262e-16)
(-1.90116e-06 0.00251975 2.01998e-16)
(-0.00175626 0.000690128 0)
(-6.1931e-05 0.00254786 2.00562e-16)
(-1.75645e-06 0.00251416 0)
(-4.36545e-06 0.00251796 -2.04878e-16)
(-0.00177054 0.00069003 0)
(0.00173584 0.000727887 1.95265e-16)
(-0.0017762 0.000679392 2.68344e-21)
(6.77113e-07 0.00251345 2.02883e-16)
(0.00176004 0.000644284 -4.19348e-16)
(0.000255628 0.00151009 0)
(-9.03439e-06 0.00252231 0)
(0.00195258 0.000901854 1.46624e-16)
(0.00171235 0.000600892 0)
(-0.000198128 0.00270249 0)
(-0.00177326 0.000671493 -3.52288e-16)
(-6.76003e-05 0.00258073 0)
(-0.00176571 0.000686142 9.75566e-17)
(-0.00149792 0.00127828 -5.25371e-17)
(-0.00175757 0.000720054 2.01111e-16)
(6.17184e-07 0.00251445 -4.04621e-16)
(-0.00180634 0.000654663 5.41569e-17)
(-0.00174496 0.000723306 1.92963e-16)
(-3.10592e-06 0.00251681 0)
(-6.24076e-06 0.00251306 -1.98247e-16)
(0.00163953 0.000561907 0)
(7.81461e-07 0.00251847 -2.04205e-16)
(1.46186e-06 0.00251686 0)
(-0.000117806 0.00261696 2.01274e-16)
(1.17372e-05 0.00228878 -2.27203e-16)
(-0.00169457 0.00071331 1.17405e-16)
(-3.65325e-05 0.00255237 9.81722e-20)
(0.00125202 0.000368258 0)
(-0.0018034 0.000662199 7.99846e-17)
(-0.00169828 0.000730025 4.68851e-17)
(5.233e-06 0.00251201 4.05011e-16)
(-9.99946e-06 0.00252128 2.016e-16)
(-0.0018044 0.000686765 -4.65996e-16)
(1.58999e-06 0.00251538 2.02681e-16)
(0.00160441 0.000521656 6.76267e-21)
(-1.27909e-05 0.00251638 2.006e-16)
(-0.00178117 0.00067654 0)
(-0.00175586 0.000704438 5.12177e-17)
(-1.39629e-06 0.00251724 -1.45947e-20)
(0.00171099 0.000833618 2.1008e-16)
(-0.00177265 0.000690376 -1.0284e-16)
(-0.00174774 0.000719415 -8.9899e-17)
(-6.2193e-06 0.00252032 -2.01522e-16)
(0.00172205 0.00067471 3.51592e-18)
(-4.54036e-07 0.00251828 -1.45988e-20)
(-0.00178489 0.000674603 4.80861e-17)
(8.15321e-06 0.00251383 0)
(-0.00177578 0.00067151 0)
(-1.4587e-05 0.00252031 -2.01464e-16)
(1.26763e-06 0.00251706 2.02264e-16)
(0.00172238 0.000713909 -2.45278e-17)
(-0.00181202 0.00061851 2.19719e-16)
(-1.31421e-05 0.00251673 1.9977e-16)
(3.16092e-06 0.00251356 0)
(-0.00176027 0.000714022 0)
(-0.00175186 0.000720536 1.53401e-16)
(-0.00180714 0.00057918 0)
(-9.02906e-05 0.00156008 -1.08308e-16)
(-4.82744e-07 0.00251804 2.02708e-16)
(-0.00174781 0.000718007 -1.45371e-16)
(-0.0017636 0.000685588 0)
(-0.00175428 0.000668292 5.30123e-17)
(-2.36816e-05 0.00252549 1.97005e-16)
(1.61038e-07 0.00251442 -1.46723e-20)
(-0.00176658 0.00067565 -5.14124e-17)
(0.00102341 0.000123265 -2.18992e-16)
(-2.24034e-05 0.00253096 -2.00424e-16)
(-7.11114e-06 0.00252085 2.02102e-16)
(3.60975e-06 0.00251454 2.0298e-16)
(-2.35495e-07 0.00252239 -2.00154e-16)
(0.00210065 0.00106378 -1.92046e-16)
(-1.48222e-05 0.00251681 -2.01107e-16)
(-0.00177887 0.000669571 0)
(-0.00172859 0.000626146 0)
(0.00166153 0.000634265 0)
(-3.84668e-06 0.00251424 -2.03568e-16)
(-0.0017455 0.000722975 2.4814e-16)
(0.00170431 0.000635276 -1.5715e-16)
(-0.00169147 0.000684529 2.71351e-16)
(-0.00176619 0.000685227 -1.96915e-16)
(-0.00176879 0.000683355 -1.01262e-16)
(-0.0019063 0.000897497 -1.00453e-16)
(-7.11454e-06 0.00251599 -4.05789e-16)
(6.87237e-06 0.00251433 8.46294e-20)
(-0.00178233 0.000731212 -5.80042e-17)
(-0.00176986 0.00071067 4.59955e-17)
(-0.00176926 0.000687998 -5.05263e-17)
(1.00601e-05 0.0025174 -2.02615e-16)
(2.16606e-06 0.0025143 4.10222e-16)
(-1.2252e-05 0.002517 -2.02959e-16)
(2.16833e-06 0.002517 -7.9536e-19)
(-0.00176431 0.000700317 4.91291e-17)
(-8.53473e-06 0.00251559 0)
(1.19789e-05 0.00251615 -2.03782e-16)
(8.2245e-06 0.00251342 2.02748e-16)
(1.03284e-05 0.00251753 3.50539e-20)
(-0.00177169 0.000664571 1.02069e-16)
(-1.42057e-05 0.002531 0)
(-0.00177213 0.000673946 -2.00615e-16)
(-0.00180708 0.00065534 0)
(0.00173348 0.000664094 -2.22457e-16)
(-9.54277e-07 0.0025159 -1.57903e-18)
(0.00166428 0.000662354 1.97901e-16)
(1.57954e-06 0.00251648 -1.45325e-20)
(-0.000154383 0.00258223 0)
(-0.000102602 0.00254927 -1.99269e-16)
(-0.00177158 0.000676397 0)
(-0.00178632 0.000673969 -9.86554e-17)
(1.71312e-05 0.00251337 0)
(-0.00175728 0.000681689 -2.14072e-16)
(-0.00176705 0.000692733 -1.06354e-16)
(0.00172451 0.000685541 2.1374e-16)
(9.73986e-07 0.00251445 -2.03082e-16)
(-1.42851e-05 0.00251709 -2.03158e-16)
(-0.00177522 0.000708473 5.55533e-17)
(-2.70127e-06 0.00251678 -2.00305e-16)
(-0.00175031 0.000665185 3.11584e-16)
(-1.15306e-05 0.00251511 -2.02289e-16)
(3.60222e-06 0.00251649 -1.45601e-20)
(-0.00174946 0.000737292 -2.36557e-16)
(-1.56099e-05 0.00251655 2.00628e-16)
(0.00173683 0.000657027 0)
(-0.00176454 0.000690062 -5.02508e-17)
(-9.29994e-07 0.00251536 3.18889e-18)
(-0.00177513 0.000664019 1.00774e-16)
(-4.19647e-07 0.00251472 -1.60072e-18)
(-0.00176507 0.000677884 5.04601e-17)
(-0.00166613 0.000622744 0)
(6.59844e-06 0.00251648 -1.46314e-20)
(-0.00192574 0.000811564 3.00914e-16)
(1.51618e-06 0.00251778 2.04468e-16)
(0.00159401 0.000814504 -5.87771e-17)
(-0.0016809 0.00075393 1.95204e-16)
(-5.51347e-07 0.00251621 2.04614e-16)
(0.00128664 0.000505523 2.15025e-16)
(-3.28873e-06 0.00251625 2.03319e-16)
(1.93606e-06 0.00251679 3.17267e-18)
(0.00147508 0.000538653 2.27231e-16)
(0.00158253 0.000552886 -2.12539e-16)
(0.00179919 0.000714305 0)
(-0.00187958 0.000766067 0)
(-1.43781e-05 0.00251644 -1.59106e-18)
(0.00163825 0.000620286 2.79969e-16)
(-1.38772e-05 0.00251516 -1.57971e-18)
(-0.00176894 0.000684579 -9.82421e-17)
(0.00160535 0.000553988 0)
(1.30888e-05 0.00251531 -4.05551e-16)
(2.13516e-06 0.00251568 -4.08067e-16)
(-0.00175941 0.000709248 0)
(-0.00177124 0.000663327 0)
(1.46694e-06 0.00251762 -4.05517e-16)
(-5.03493e-05 0.00254162 0)
(-0.00175963 0.000724296 -1.95479e-16)
(-3.3843e-05 0.00253016 -4.00512e-16)
(-0.00160786 0.000579464 0)
(0.00181517 0.000588873 5.24844e-17)
(1.882e-07 0.00251308 -1.60739e-18)
(5.71002e-06 0.00251842 2.0431e-16)
(0.00137655 0.000857614 -7.03674e-18)
(6.69346e-07 0.00251565 -2.04791e-16)
(-0.00178133 0.000655796 1.57437e-16)
(-0.00186667 0.000866151 1.38982e-16)
(-1.54527e-05 0.00251603 2.01867e-16)
(-0.00177522 0.000663468 1.45747e-16)
(-2.74544e-06 0.00251682 2.04812e-16)
(-1.4343e-05 0.00251547 -2.02604e-16)
(-1.61973e-05 0.00251566 -2.01907e-16)
(-0.00175258 0.000712695 0)
(-0.00177283 0.000666075 -4.98681e-17)
(-1.77831e-06 0.0025152 -7.98779e-19)
(1.47914e-05 0.00251615 0)
(-0.00175017 0.00071 1.98688e-16)
(-0.00176475 0.000666116 0)
(2.27734e-06 0.00251488 -2.034e-16)
(-1.21433e-05 0.00252383 3.16229e-18)
(0.00172148 0.000668938 -2.14734e-16)
(2.26589e-06 0.00251601 -4.1085e-16)
(-0.00190067 0.00075064 3.41574e-16)
(-9.22263e-07 0.00251584 0)
(-8.25588e-07 0.00251717 2.02759e-16)
(-4.83936e-07 0.00251613 0)
(-1.18774e-07 0.0025165 2.02819e-16)
(1.83556e-06 0.00251547 -2.02306e-16)
(0.00148421 0.00057551 1.21377e-16)
(6.74465e-07 0.00251502 2.02448e-16)
(1.15878e-06 0.00252051 -1.46568e-20)
(-3.0419e-08 0.0025158 2.04801e-16)
(-1.67972e-05 0.00251615 4.04645e-16)
(-0.00177382 0.000677562 0)
(-0.00177194 0.000683472 -5.25274e-17)
(-1.46009e-05 0.0025158 0)
(-3.33053e-07 0.00251594 0)
(-1.68549e-06 0.00251493 -2.06612e-16)
(1.48373e-05 0.00251692 2.03098e-16)
(1.22539e-05 0.00251711 2.03863e-16)
(-0.00176847 0.000687734 2.57696e-16)
(1.31984e-05 0.00251578 2.03294e-16)
(-9.70403e-07 0.00251693 -2.04793e-16)
(-2.4111e-06 0.00251602 0)
(-6.59564e-07 0.00251582 -1.47056e-20)
(-0.00177226 0.000682952 1.00376e-16)
(1.46752e-05 0.00251607 0)
(1.38376e-05 0.00251532 2.03436e-16)
(-5.89889e-06 0.00252071 -2.05256e-16)
(-0.00177796 0.000663255 0)
(-2.38444e-08 0.00251588 0)
(0.00173774 0.000668558 -2.13231e-16)
(-3.11801e-07 0.00251755 1.59879e-18)
(-2.44966e-07 0.0025181 -3.98537e-19)
(-1.20355e-05 0.00251375 -7.92065e-19)
(-1.62347e-05 0.00251544 1.46011e-20)
(-1.31166e-05 0.00251452 7.92712e-19)
(-0.00176393 0.000761992 -1.24095e-16)
(-1.56522e-05 0.00251433 2.0361e-16)
(8.3981e-06 0.00251491 0)
(-1.53345e-05 0.00251465 2.02162e-16)
(-1.55208e-05 0.00251513 -2.02508e-16)
(-1.63622e-05 0.00251616 -2.03448e-16)
(-0.00213747 0.00174821 -3.08461e-16)
(-0.000407535 0.00050471 -3.84298e-16)
(1.51096e-05 0.00251643 -2.03713e-16)
(-1.50904e-06 0.00251656 -2.03071e-16)
(1.76038e-07 0.00251713 -2.03025e-16)
(1.3566e-05 0.00251527 2.03498e-16)
(-0.00178106 0.000671857 -2.02473e-16)
(-1.74017e-05 0.00251487 2.0214e-16)
(-1.45331e-06 0.00251628 -2.0269e-16)
(-1.14751e-05 0.00252108 -4.03166e-16)
(-1.32337e-06 0.00251546 -1.60329e-18)
(1.614e-05 0.00251534 2.02728e-16)
(0.00172428 0.000661463 2.13265e-16)
(-5.37834e-06 0.00251703 -2.02729e-16)
(9.88441e-07 0.00251581 -1.45895e-20)
(0.00183691 0.000758796 -2.63005e-16)
(-5.39409e-07 0.00251572 0)
(-1.13415e-06 0.00251579 0)
(-1.73002e-05 0.00251542 -4.06252e-16)
(-0.00177208 0.000680102 1.00717e-16)
(3.2206e-07 0.00251434 -4.00492e-19)
(-2.00758e-05 0.00251625 2.12278e-19)
(0.00173577 0.000642398 1.41756e-17)
(-1.84608e-05 0.0025174 2.03075e-16)
(1.82798e-05 0.00251635 2.03048e-16)
(1.6725e-05 0.00251596 -2.029e-16)
(4.20359e-06 0.00251568 -2.03471e-16)
(-1.96186e-05 0.00251648 1.45942e-20)
(-0.0018422 0.000657921 -2.15474e-16)
(-0.00151895 0.00059058 2.65478e-16)
(-1.69865e-06 0.0025134 -1.46742e-20)
(-1.09178e-06 0.00251644 -2.02589e-16)
(-0.00175614 0.000712959 5.11236e-17)
(1.59659e-06 0.00251506 -1.47059e-20)
(-1.8092e-05 0.00251464 8.05147e-19)
(1.81753e-05 0.00251543 -4.06042e-16)
(8.3561e-06 0.00251308 2.03833e-16)
(1.54503e-05 0.00251498 -2.03831e-16)
(1.5191e-05 0.00251552 -2.03825e-16)
(1.81476e-05 0.00251576 2.03125e-16)
(1.51506e-05 0.00251509 1.98678e-19)
(1.80114e-05 0.00251582 0)
(0.00173771 0.000657047 0)
(-1.46786e-05 0.00251597 2.04488e-16)
(-1.19076e-06 0.0025186 0)
(3.29743e-06 0.00251759 2.03736e-16)
(1.80507e-05 0.00251575 0)
(1.79747e-05 0.00251595 2.03193e-16)
(1.82075e-05 0.00251557 -9.9191e-20)
(1.88949e-06 0.00251777 1.99363e-16)
(1.63607e-05 0.00251681 0)
(-4.7597e-06 0.0025183 0)
(-1.52588e-05 0.00251787 -2.04708e-16)
(-0.00176851 0.000682725 -2.47621e-21)
(1.60704e-05 0.00251566 0)
(-3.70745e-05 0.00255878 0)
(1.57886e-05 0.0025157 0)
(-0.00172698 0.000658994 1.5717e-16)
(1.24124e-06 0.00251671 -2.02842e-16)
(-1.13657e-05 0.00252118 2.04681e-16)
(1.65096e-05 0.00251713 -9.94046e-20)
(-0.00173557 0.000723804 5.56766e-17)
(-0.00175848 0.00071473 -5.08319e-17)
(1.4437e-05 0.00251671 -2.0382e-16)
(-4.36112e-06 0.00251183 0)
(-6.05516e-07 0.0025201 -2.039e-16)
(1.46424e-05 0.00251687 1.46462e-20)
(1.81454e-05 0.00251546 -2.03659e-16)
(-1.69065e-06 0.00250994 4.0504e-16)
(0.00167181 0.000578428 -3.65595e-16)
(0.0017316 0.000669278 -4.30919e-16)
(-2.54626e-06 0.00251664 4.0725e-16)
(0.00171082 0.000675165 0)
(1.42947e-05 0.00251686 0)
(1.84402e-05 0.00251505 -3.96996e-19)
(-0.00179977 0.000712129 -1.84022e-16)
(-0.00176542 0.000721479 1.05905e-16)
(1.12902e-06 0.00251483 -1.00204e-19)
(1.44342e-05 0.00251707 2.03871e-16)
(1.53131e-06 0.00251582 -2.0313e-16)
(-0.00161428 0.0015422 1.02777e-16)
(1.36693e-05 0.00251679 7.96846e-19)
(-1.76913e-05 0.00251729 2.03302e-16)
(-1.45989e-06 0.0025192 2.04072e-16)
(-0.00201552 0.00103154 -2.015e-16)
(1.41199e-05 0.00251757 0)
(-1.02818e-06 0.00251611 4.01574e-19)
(-3.86777e-06 0.00251843 -2.03105e-16)
(-0.001773 0.000672244 0)
(0.00178052 0.000487494 3.85785e-16)
(-0.00174495 0.000723662 5.36679e-17)
(1.35083e-05 0.00251703 -7.96977e-19)
(1.89957e-06 0.00251665 -2.03829e-16)
(-1.57451e-05 0.00251435 -2.03656e-16)
(-0.00176511 0.000708718 3.04096e-16)
(1.35512e-05 0.00251788 -2.04089e-16)
(-2.06514e-05 0.00251529 7.9302e-19)
(1.08408e-06 0.00251478 2.00591e-19)
(1.6813e-05 0.00251537 0)
(-4.88756e-07 0.00251972 0)
(1.70403e-05 0.00251518 0)
(1.78299e-06 0.00251662 0)
(-0.00176801 0.000671896 -5.05807e-17)
(-1.85595e-05 0.00251439 0)
(-1.23128e-06 0.00251597 0)
(0.00186956 0.000870594 1.5751e-16)
(1.15427e-06 0.0025167 0)
(-0.000101455 0.00261991 0)
(-4.93938e-07 0.0025196 4.08009e-16)
(9.12117e-07 0.00251481 0)
(0.00172104 0.000633739 -4.81146e-17)
(0.00173217 0.000672564 0)
(0.00156414 0.000761703 1.05924e-16)
(0.00169996 0.000615482 -2.06199e-16)
(1.96745e-06 0.0025164 -4.07224e-16)
(-0.00160215 0.000692851 0)
(7.89191e-07 0.00251675 -1.99181e-19)
(-0.00175605 0.000710075 -9.91583e-17)
(1.89163e-05 0.00251551 0)
(0.000859279 0.000982692 0)
(3.14006e-07 0.00251605 -4.02032e-19)
(1.57694e-06 0.00252232 -1.26934e-17)
(0.000647073 0.00154833 -7.05266e-18)
(1.68171e-05 0.00251401 0)
(2.02215e-06 0.00251596 0)
(-0.00176398 0.000693667 0)
(-8.21641e-07 0.0025164 4.0641e-16)
(-7.28629e-07 0.00251702 0)
(0.00172833 0.000663134 3.8934e-21)
(0.000489874 0.00145125 0)
(-8.60405e-08 0.00251623 4.14445e-19)
(-2.10881e-07 0.00251746 -2.04146e-16)
(1.27629e-06 0.00251565 -2.03126e-16)
(1.06183e-06 0.00251496 -4.02705e-19)
(4.65216e-07 0.00251526 0)
(9.70374e-07 0.00251803 1.4722e-20)
(0.0017685 0.000628513 0)