/*--------------------------------*- C++ -*----------------------------------*\
  =========                 |
  \\      /  F ield         | OpenFOAM: The Open Source CFD Toolbox
   \\    /   O peration     | Website:  https://openfoam.org
    \\  /    A nd           | Version:  12
     \\/     M anipulation  |
\*---------------------------------------------------------------------------*/
FoamFile
{
    format      ascii;
    class       surfaceScalarField;
    location    "0.24";
    object      phi;
}
// * * * * * * * * * * * * * * * * * * * * * * * * * * * * * * * * * * * * * //

dimensions      [0 3 -1 0 0 0 0];

internalField   nonuniform List<scalar> 
6438
(
-3.89161e-08
4.86915e-06
-4.83024e-06
-4.20595e-08
5.65671e-06
-5.61465e-06
-5.30746e-06
-9.04145e-07
6.21161e-06
5.03454e-06
-5.52772e-06
4.93186e-07
7.73323e-06
-6.04252e-06
-1.6907e-06
1.74708e-06
5.98614e-06
-6.03614e-06
7.28676e-07
-5.22833e-06
5.18627e-06
5.65352e-06
-6.74653e-06
1.093e-06
5.24931e-06
-6.15862e-06
9.0931e-07
-5.07585e-06
6.17953e-06
-1.10368e-06
1.21752e-06
-5.56084e-06
4.34332e-06
-6.29243e-06
1.21658e-06
4.82411e-06
2.21554e-06
-7.03965e-06
4.53421e-06
-4.57312e-06
-2.56467e-07
5.31373e-06
-5.05726e-06
-6.69489e-06
6.49384e-06
2.01046e-07
-5.06897e-06
6.1595e-06
-1.09053e-06
-6.29171e-06
1.22273e-06
1.99705e-06
4.2166e-06
-6.21365e-06
-1.4537e-06
-9.49232e-07
2.40293e-06
-3.08729e-07
5.56438e-06
-5.25565e-06
-5.16378e-06
-8.36164e-07
5.99994e-06
-6.32405e-06
2.77156e-06
3.55249e-06
-5.4813e-06
5.17257e-06
-4.8679e-06
5.91745e-06
-1.04955e-06
-5.96023e-06
7.96447e-07
5.64144e-06
-4.42392e-06
-5.12497e-06
-9.64081e-07
6.08905e-06
-6.20448e-06
1.33658e-06
4.74247e-06
-5.96972e-06
1.22726e-06
2.60918e-08
-5.80979e-06
5.7837e-06
5.68635e-06
-5.72248e-06
3.61321e-08
-5.63434e-06
9.45316e-07
4.68902e-06
-7.60631e-06
1.23252e-06
6.3738e-06
5.35001e-06
-5.32392e-06
5.39948e-06
-3.64944e-07
3.50264e-06
4.90756e-06
-8.4102e-06
-1.74115e-06
6.56526e-06
-5.02382e-06
5.52105e-06
-4.97232e-07
-5.82191e-06
5.76965e-06
5.22541e-08
-2.41529e-06
4.41234e-06
5.20424e-06
4.50689e-08
-6.25715e-06
6.12927e-06
1.27879e-07
5.59908e-06
-8.56612e-07
-4.22117e-06
3.9647e-06
-7.27535e-06
1.23283e-06
5.53313e-06
5.31703e-07
-6.06483e-06
-4.29133e-06
-1.34301e-06
-7.90927e-07
-5.17469e-06
5.87204e-06
-6.97349e-07
-3.84356e-06
5.55327e-06
-1.70971e-06
5.58156e-06
-5.58156e-06
1.75552e-06
4.23283e-06
5.56416e-07
-4.78924e-06
2.48423e-06
1.21067e-06
-3.69489e-06
4.72492e-06
9.99752e-07
-5.72467e-06
4.56449e-06
-1.79293e-06
-2.64616e-06
-4.6292e-06
-5.51213e-08
4.92125e-06
-4.86613e-06
-6.06856e-06
6.06856e-06
-6.28862e-06
6.3548e-06
-6.61788e-08
2.54984e-07
4.67196e-06
-4.92695e-06
1.73082e-08
-5.72589e-06
5.70858e-06
5.31415e-06
-5.29684e-06
-5.79477e-06
6.69796e-07
-5.80902e-06
-4.48132e-07
-4.99717e-06
5.49448e-06
-4.97306e-07
5.52773e-07
4.78468e-06
-5.33745e-06
-5.87693e-06
5.65139e-06
2.25537e-07
5.72791e-06
-5.72791e-06
5.32095e-06
3.32571e-07
-3.49704e-06
-2.66158e-06
4.98961e-06
1.05179e-06
-6.04141e-06
-4.89328e-06
-9.28628e-07
4.3478e-06
3.35774e-06
-7.70554e-06
-6.73108e-06
4.31579e-06
-4.29231e-06
-2.43877e-06
5.93545e-06
-9.45837e-07
3.53439e-06
-1.05016e-06
4.80179e-06
5.51356e-07
-5.35314e-06
-5.92166e-06
-3.66962e-07
-8.35917e-07
-1.4432e-06
-4.62536e-06
6.42071e-06
-6.42071e-06
-4.24198e-06
-1.63495e-06
-3.84212e-07
-7.2221e-06
-5.53993e-06
5.51756e-06
2.23721e-08
1.99569e-07
-5.60939e-06
5.40982e-06
-6.16438e-07
5.41822e-06
5.54447e-06
1.41875e-07
-5.79198e-06
-9.02911e-07
-5.85042e-06
6.00064e-06
-1.50225e-07
6.1002e-06
-3.41467e-06
-2.68553e-06
5.47665e-06
-5.27708e-06
1.11464e-07
6.1382e-06
-3.12376e-06
-3.01444e-06
3.49339e-06
2.60681e-06
5.63643e-06
-5.63643e-06
-4.3229e-06
6.20273e-06
-1.87983e-06
-5.43393e-06
2.59238e-07
-7.42569e-07
-4.40201e-06
5.14457e-06
-5.09227e-06
1.98991e-07
-5.45802e-06
1.13512e-06
4.71024e-06
1.04125e-06
-5.75149e-06
-3.24553e-07
5.03479e-06
-4.9185e-06
5.68304e-06
-7.64538e-07
-5.22661e-06
2.02791e-07
3.59829e-06
2.53991e-06
5.44092e-06
-1.0976e-06
2.33653e-07
5.34791e-06
-4.69714e-06
-3.95128e-07
4.91183e-06
1.04518e-06
-5.95701e-06
-2.71466e-06
-2.34326e-06
5.05792e-06
3.57505e-06
-4.48949e-07
-3.1261e-06
-5.80979e-06
1.17789e-06
5.82745e-06
-7.00534e-06
-2.70042e-06
1.24673e-06
5.81265e-06
1.04799e-07
6.29664e-06
-3.25938e-06
-3.03726e-06
2.10835e-06
4.18829e-06
5.88473e-06
-9.72892e-07
7.17631e-06
-3.67366e-06
-5.31736e-06
1.36175e-08
5.30374e-06
-7.60406e-06
7.78543e-07
6.82552e-06
-8.69988e-08
-5.27798e-06
5.36498e-06
5.80657e-06
3.22702e-07
-4.47778e-06
4.42266e-06
-5.34327e-06
5.45085e-06
-1.07578e-07
5.41032e-06
-5.49732e-06
5.58206e-06
-5.58206e-06
5.49932e-06
1.57391e-07
5.50985e-06
-1.27703e-06
5.43598e-06
-5.181e-06
-4.78777e-06
4.0452e-06
4.90302e-08
5.27559e-06
-5.32462e-06
6.19954e-06
-4.34529e-06
-1.85425e-06
-5.72589e-06
-8.18879e-08
6.40307e-08
-5.29236e-06
-5.30517e-06
3.07997e-07
6.12674e-08
5.28875e-06
5.11811e-06
-4.56534e-06
-5.27841e-06
3.59913e-07
5.35593e-06
-1.51688e-07
-1.90999e-07
4.6604e-06
-4.4694e-06
3.66428e-06
2.53526e-06
-5.48972e-06
1.17747e-06
4.31224e-06
5.59393e-06
-4.06637e-08
-7.39913e-06
6.74777e-07
6.72436e-06
-7.47181e-08
-5.25013e-06
5.32484e-06
3.49006e-06
8.49849e-08
3.33048e-07
5.26088e-06
5.20769e-06
4.33744e-07
5.37853e-06
-5.45325e-06
-5.60495e-06
-1.87024e-07
5.71643e-06
-6.14036e-06
4.23927e-07
-5.11237e-06
-2.04994e-07
-6.22133e-06
2.6974e-06
3.52393e-06
3.63386e-09
5.37924e-06
1.85134e-07
-5.06179e-06
5.88595e-06
-8.24161e-07
-5.58319e-06
4.80721e-06
7.75986e-07
-7.54561e-07
1.9499e-06
-1.19534e-06
-1.74892e-06
-4.45556e-06
-5.60939e-06
-4.42782e-08
5.35843e-06
1.64075e-06
4.56198e-06
-8.94545e-08
-5.45571e-06
-2.55842e-08
-1.15091e-07
-5.96547e-06
5.04155e-06
9.2392e-07
-3.51103e-07
4.44443e-06
8.76518e-07
8.72033e-06
-3.81277e-06
-1.84546e-06
-4.44625e-06
5.47024e-06
7.42302e-08
-4.69785e-06
1.98319e-06
-2.10737e-06
-3.32918e-06
5.43655e-06
-1.88212e-06
-4.41031e-06
-3.06406e-06
7.41186e-06
-5.63936e-06
1.83649e-07
-5.32488e-06
5.34535e-06
-2.04709e-08
-4.40158e-06
4.21058e-06
-6.40362e-08
-5.21887e-06
5.28291e-06
-5.73705e-06
9.7691e-08
4.78579e-06
-5.69436e-06
9.08571e-07
5.3317e-06
-5.39574e-06
4.765e-06
-1.80445e-06
-2.96055e-06
-7.20573e-06
2.55119e-06
4.65454e-06
4.88662e-06
4.69313e-07
4.03654e-06
2.4573e-06
1.1801e-06
5.24061e-06
-1.39904e-06
-5.02167e-06
-5.80486e-06
5.75381e-06
5.10527e-08
-5.78934e-06
-1.5527e-08
-5.75939e-06
-2.99435e-08
1.67578e-08
1.49782e-06
-8.3883e-06
6.89048e-06
-6.23137e-06
7.40926e-06
4.92057e-06
-4.87154e-06
5.25711e-06
2.19533e-07
4.28936e-07
4.33606e-06
-5.27798e-06
-4.78536e-06
4.76245e-06
5.94383e-07
-5.35684e-06
-2.73298e-08
-1.13533e-06
8.37573e-06
-7.2404e-06
7.9456e-06
-5.73005e-06
-2.40949e-06
3.62016e-06
-1.52757e-06
-4.69376e-06
-4.171e-06
-3.03473e-06
-5.27688e-06
-3.28077e-07
-5.31349e-06
5.31273e-06
7.63651e-10
-8.40162e-07
4.98943e-06
-4.14926e-06
-5.70298e-06
5.74317e-06
-4.01917e-08
-5.64346e-06
-5.95223e-08
-7.25459e-06
4.51447e-07
6.80314e-06
-5.07125e-06
-3.28981e-07
5.40023e-06
5.68177e-06
6.14014e-08
-1.01009e-06
-6.20925e-06
2.26134e-06
3.9479e-06
3.59733e-08
-3.28823e-06
-2.92102e-06
-7.76189e-08
-5.79517e-08
-5.18947e-06
5.24742e-06
-5.33732e-06
2.6607e-07
4.82351e-06
6.46732e-07
5.5591e-06
-5.32545e-06
5.28171e-06
-5.33966e-06
5.25876e-06
1.51565e-07
2.58442e-06
5.36118e-06
5.49147e-06
-1.04704e-06
-4.31026e-07
-7.17304e-06
-3.14618e-07
4.33507e-06
-4.02045e-06
-5.61657e-06
-2.68945e-08
-5.61578e-06
-7.89165e-10
5.66109e-06
-5.62069e-06
-4.03984e-08
5.5992e-06
6.1881e-08
-5.25013e-06
1.29632e-06
-1.78053e-06
4.84211e-07
-6.34101e-06
3.70951e-06
2.6315e-06
2.84097e-06
-5.69517e-06
2.8542e-06
-4.97138e-06
-4.62544e-07
-5.29578e-06
5.26954e-06
2.62356e-08
-5.51016e-06
5.31412e-06
1.96044e-07
-4.39949e-07
5.63884e-06
-5.1989e-06
-5.47082e-06
1.33497e-07
-6.07417e-06
7.57199e-06
-5.64577e-07
-4.92514e-06
-5.71065e-06
5.2707e-06
-4.47477e-06
-4.12e-07
4.88678e-06
-4.19534e-06
5.56304e-06
3.6167e-08
-3.81166e-06
-1.01977e-06
1.13071e-06
-1.10944e-07
-5.27393e-08
2.04253e-07
-7.2466e-06
7.04235e-06
-4.06306e-06
-1.97308e-06
-5.64299e-06
5.52721e-06
1.15779e-07
-5.55632e-06
-8.66707e-08
-1.99863e-06
1.24407e-06
5.24926e-06
1.29276e-07
5.60647e-06
-9.34512e-07
5.55079e-06
-5.5442e-06
-6.58397e-09
-1.50004e-08
-5.1497e-06
5.1647e-06
5.80977e-06
-4.16902e-06
-6.99007e-08
5.76487e-06
3.25236e-06
-9.01723e-06
5.71241e-06
-5.71241e-06
8.82598e-07
5.18596e-06
-2.01573e-06
-3.56583e-06
-4.5527e-06
5.48702e-06
-9.34317e-07
-6.08006e-07
-4.90215e-06
5.25512e-06
-5.27012e-06
-5.03216e-06
8.58633e-08
4.94629e-06
9.65848e-07
-5.10045e-06
4.13461e-06
-5.28072e-06
5.22631e-06
5.44061e-08
3.37295e-06
2.43682e-06
-1.65071e-07
-8.547e-07
-3.17079e-06
-3.17023e-06
-1.2122e-06
-5.6375e-06
5.75712e-07
-5.21887e-06
4.72907e-06
9.8736e-07
-4.39328e-06
-4.93297e-06
4.58195e-07
-5.03346e-06
2.9261e-06
5.71086e-06
-4.64295e-06
-1.06791e-06
9.75842e-07
4.58326e-06
-4.04428e-06
-1.91595e-06
-5.58698e-06
5.58698e-06
5.58836e-06
-5.37368e-06
-2.14679e-07
3.22254e-07
-5.29364e-06
-4.47105e-06
5.05461e-06
-5.83563e-07
-1.77184e-06
8.22605e-07
5.20642e-06
-5.23178e-06
2.53646e-08
5.46807e-06
5.91387e-08
5.52547e-06
6.2882e-08
8.34929e-06
-5.3276e-06
-1.4322e-07
-4.67452e-06
3.83436e-06
5.24219e-06
8.95119e-08
5.50878e-06
-5.47745e-06
-3.13274e-08
-4.75365e-08
-7.61308e-08
5.7508e-07
-4.72367e-06
4.14859e-06
-1.65939e-07
-7.23319e-06
1.72994e-06
3.89858e-07
-4.86091e-06
-5.26959e-06
5.18927e-06
8.03204e-08
5.25808e-06
-4.72294e-07
-2.45596e-06
-3.26653e-06
-7.36669e-06
5.46051e-07
-2.95554e-06
-8.75043e-07
2.24552e-08
5.41643e-06
-4.82204e-06
-5.18947e-06
-5.19784e-06
1.35361e-07
5.06247e-06
7.33803e-06
1.0377e-06
4.22942e-06
2.12538e-06
5.11773e-06
-2.27676e-06
5.34495e-06
-3.03404e-07
1.22593e-05
-9.00691e-06
-8.3883e-06
-2.68808e-06
-2.89512e-06
-6.77658e-08
5.69804e-06
-5.33845e-06
-3.5959e-07
5.40105e-06
1.24423e-07
6.24718e-07
-5.17742e-06
-3.84184e-06
4.41692e-06
5.23624e-06
4.54739e-08
4.11287e-06
1.82258e-06
5.49352e-06
2.04524e-07
5.48864e-06
-5.40993e-06
-7.87077e-08
-2.47136e-06
-3.49836e-06
-2.47355e-07
5.05456e-06
9.40058e-08
-5.82191e-06
4.55105e-06
-3.5852e-06
-7.64031e-08
1.14961e-07
4.43952e-06
-4.82049e-06
3.80963e-07
8.11187e-07
4.67583e-06
7.44805e-06
-7.2438e-06
2.59156e-06
3.28048e-06
-5.25588e-06
5.19426e-06
6.16224e-08
-1.21182e-07
-3.05505e-06
1.67291e-06
1.38214e-06
-5.47383e-08
5.71045e-06
-5.71045e-06
6.45127e-06
-3.74037e-06
-2.7109e-06
-4.73297e-06
-7.94758e-07
3.99179e-06
1.89294e-06
5.46239e-06
3.11265e-08
-5.1497e-06
5.10938e-06
3.2473e-08
-5.14185e-06
4.1833e-06
5.82191e-06
-5.7837e-06
1.47271e-07
6.79807e-06
-6.01952e-06
5.26428e-06
-5.60761e-06
5.22747e-06
-1.18094e-07
4.71908e-06
-5.10632e-06
5.07942e-06
2.69074e-08
2.3892e-07
4.09726e-06
-4.33618e-06
-4.64683e-06
3.83825e-06
-3.48189e-07
4.86026e-06
6.60786e-07
-4.65198e-08
-4.49381e-06
-7.846e-07
-6.72894e-06
4.25757e-06
7.32434e-09
-5.11969e-06
-5.452e-06
-2.58647e-07
7.3026e-06
-3.94486e-06
5.24589e-08
-9.44393e-07
5.80675e-06
-4.86235e-06
-2.48104e-06
-5.7401e-07
5.08627e-06
-5.14114e-06
5.48672e-08
-5.26428e-06
5.22002e-06
2.26398e-06
3.23449e-06
-5.49847e-06
5.47264e-06
-1.03312e-06
4.54661e-07
4.85906e-06
5.36656e-06
5.19389e-07
5.85541e-07
7.10775e-07
-5.70858e-06
1.26521e-07
-4.53191e-06
5.15663e-06
-2.62489e-06
3.17094e-06
4.84284e-07
-4.76156e-06
4.27727e-06
-3.85304e-08
1.0076e-07
-4.74985e-06
-5.40226e-06
5.30329e-06
9.89619e-08
-5.18251e-06
5.3956e-07
3.38202e-06
3.06926e-06
-2.91668e-06
5.98021e-06
-3.06353e-06
5.99299e-06
-5.59483e-06
-3.9816e-07
1.49221e-07
3.68903e-06
-5.14283e-06
-5.50034e-08
5.21986e-06
7.611e-09
2.58113e-06
-9.08221e-07
6.64452e-06
-5.96974e-06
4.76424e-06
7.30239e-07
3.00395e-07
-5.29985e-06
8.06038e-07
8.1011e-08
-4.61292e-06
5.91823e-06
-4.78311e-06
4.82526e-06
-2.93693e-07
-4.59337e-06
4.88706e-06
-5.19462e-06
5.40942e-06
-6.40699e-08
-7.86952e-06
6.29111e-07
-3.3349e-08
5.09575e-06
9.85106e-08
-4.81176e-06
-5.28037e-06
5.25831e-06
2.20668e-08
6.3198e-06
-3.6703e-06
-2.6495e-06
-4.43135e-06
-3.98499e-07
4.82985e-06
-1.1921e-08
-5.22227e-06
1.12289e-07
-5.64616e-07
5.57756e-06
-5.01294e-06
-5.11325e-06
5.13861e-06
-7.42053e-06
-1.08325e-06
-7.17808e-06
6.99824e-06
1.7984e-07
4.09723e-06
2.0823e-06
4.7956e-06
4.3012e-07
-5.22572e-06
5.09618e-06
-2.09557e-07
4.109e-06
2.0505e-06
-3.6382e-06
1.15716e-06
-5.1506e-06
4.47453e-06
-5.09097e-06
-6.91507e-06
6.88997e-06
2.50992e-08
6.24664e-06
-5.01412e-06
5.09482e-06
-1.53998e-08
3.13241e-07
-4.7514e-06
4.43816e-06
-7.68189e-08
-6.83825e-06
6.17436e-06
-6.17436e-06
-2.80983e-06
5.29729e-06
-2.48747e-06
-5.099e-06
5.099e-06
5.21432e-06
-4.60978e-06
-6.04535e-07
4.84887e-06
1.15177e-06
5.43342e-06
-4.45758e-06
5.37285e-06
-6.01164e-08
-4.20612e-06
-6.73766e-07
4.87989e-06
-6.83079e-06
6.85396e-06
-2.31658e-08
6.3017e-06
-3.7935e-06
-2.5082e-06
9.20962e-07
4.51246e-06
-6.90229e-06
6.86774e-06
3.45531e-08
-1.29172e-09
-5.02628e-08
6.81132e-06
-6.76105e-06
-6.87603e-06
6.87603e-06
-8.18502e-08
5.16812e-06
7.37871e-06
-6.8785e-06
-5.00216e-07
-6.90659e-06
6.85633e-06
6.90063e-06
-6.86545e-06
-3.51781e-08
-5.02783e-06
-1.1331e-07
5.88129e-06
-7.84715e-08
6.85477e-06
-6.7763e-06
6.85692e-06
-6.86982e-06
1.29032e-08
-5.18272e-06
6.82127e-06
-9.95077e-09
-5.2742e-06
5.22709e-06
4.71173e-08
-6.81996e-06
6.84453e-06
-2.45671e-08
5.2237e-06
-5.08834e-06
-6.88833e-06
6.80986e-06
5.28282e-06
-1.6792e-06
2.51621e-06
3.29054e-06
-3.81951e-06
-2.90943e-06
-6.86442e-06
6.86442e-06
-6.89587e-06
-1.0714e-08
6.38371e-06
-1.17014e-06
-5.21356e-06
-4.50017e-06
3.05697e-06
1.72013e-07
6.83224e-06
-6.85338e-06
2.11436e-08
5.02876e-06
-5.02404e-06
-4.7206e-09
7.0451e-06
-6.86214e-06
-1.82958e-07
6.79674e-06
3.54991e-08
6.78423e-06
7.05411e-08
-1.39517e-08
-5.08505e-06
-6.29286e-06
3.46287e-06
2.82998e-06
-5.07791e-06
5.11038e-06
6.81826e-06
-2.15248e-08
7.15907e-07
4.62904e-06
3.66693e-06
-1.40295e-06
-6.8784e-06
-9.93548e-09
5.60975e-06
3.32904e-06
-5.6723e-06
-8.63986e-07
-7.00553e-06
5.11772e-06
-5.14741e-06
2.96895e-08
-2.37225e-07
-6.94086e-06
5.32899e-06
-5.9452e-08
5.92517e-06
-4.05384e-06
-1.87133e-06
-5.12881e-06
6.82865e-06
-6.82865e-06
4.88589e-06
6.31156e-08
-4.949e-06
5.25907e-06
-6.843e-06
6.83403e-06
8.97012e-09
6.79463e-06
-6.86008e-06
6.54497e-08
4.3252e-06
-5.72424e-06
-1.82345e-08
-6.79484e-06
6.81307e-06
6.77917e-06
-6.7974e-06
-2.2688e-07
7.22512e-06
-5.42832e-06
5.87977e-06
-6.1425e-06
4.26038e-06
-1.07998e-07
6.99796e-06
5.8854e-07
3.03162e-06
5.71793e-08
6.32653e-06
-1.85676e-08
5.47576e-06
-5.45719e-06
-4.65611e-08
-6.8594e-06
-4.28931e-08
5.63034e-06
-5.6339e-07
-5.06695e-06
-6.81377e-06
6.81377e-06
4.00138e-06
-3.44496e-06
-6.87023e-06
6.85224e-06
1.79919e-08
5.24679e-06
-5.24679e-06
5.10824e-06
-7.94801e-08
6.82309e-06
-6.83405e-06
1.09581e-08
-6.58655e-06
1.80118e-06
6.75587e-09
-5.06818e-06
5.06142e-06
5.49681e-06
-4.5958e-08
6.83744e-06
6.31837e-08
4.14774e-06
7.08009e-07
-4.85575e-06
6.85833e-06
-3.70584e-08
5.32776e-06
-5.32776e-06
6.81472e-06
-6.79104e-06
-2.3686e-08
-5.21092e-06
5.17243e-06
3.84874e-08
6.86683e-06
-6.846e-06
-2.08258e-08
-6.82505e-06
6.82505e-06
1.01622e-06
4.7786e-06
1.61272e-07
-4.93987e-06
-6.87079e-06
6.85291e-06
1.78726e-08
-2.53329e-08
-5.14493e-06
5.11532e-06
2.40544e-09
6.38613e-06
-1.20724e-06
-5.17889e-06
4.41197e-06
6.79743e-06
-6.81618e-06
1.87521e-08
5.25332e-06
5.61156e-06
7.91042e-08
4.80678e-06
6.97013e-06
-1.32685e-07
6.77511e-06
2.23156e-08
4.98557e-06
-4.98557e-06
-2.62489e-06
6.89331e-06
-6.83915e-06
-2.0926e-08
6.83562e-06
-6.80988e-06
-2.57451e-08
1.33661e-07
-6.96534e-06
6.83168e-06
7.16118e-07
-6.89048e-06
-6.85836e-06
6.84655e-06
1.1816e-08
4.95142e-06
-4.94872e-06
-2.70369e-09
5.21432e-06
-4.60178e-06
4.60178e-06
6.78885e-06
-1.37434e-08
-5.09023e-06
-4.7514e-06
4.7956e-06
5.28122e-06
-5.49056e-08
-1.54333e-08
5.40991e-07
-6.74237e-06
6.83449e-06
-6.83666e-06
2.1713e-09
1.63583e-07
4.78784e-06
1.57678e-07
5.47266e-06
5.14826e-06
-4.00256e-08
-6.84306e-06
6.83512e-06
7.93262e-09
6.78274e-06
-6.80167e-06
1.89275e-08
-6.83693e-06
-3.33037e-08
6.81836e-06
-6.80044e-06
-1.79172e-08
5.14831e-06
9.84822e-08
6.82261e-06
2.96337e-08
-8.57217e-09
6.80731e-06
2.78135e-08
-1.03556e-09
-5.04261e-06
-6.91106e-06
7.28108e-08
-5.11478e-06
5.11478e-06
6.31472e-08
6.32298e-06
-5.19753e-06
9.91412e-07
3.57775e-08
6.82114e-06
2.83976e-07
-4.91503e-06
4.63105e-06
4.73839e-08
6.82864e-06
6.51473e-06
-7.10538e-06
5.14349e-06
1.84271e-07
6.77917e-06
-5.25766e-08
4.83118e-06
-4.97363e-06
2.49081e-08
4.90041e-06
-7.52668e-07
-6.7961e-06
6.7961e-06
-6.83251e-06
-3.82734e-08
4.60978e-06
-4.77744e-06
1.67655e-07
-6.82864e-06
5.03297e-06
-5.02622e-06
6.81926e-06
3.36589e-08
-6.82243e-06
-6.06786e-06
4.2224e-06
-6.85155e-06
6.84015e-06
1.13948e-08
4.6584e-06
4.37771e-07
5.06818e-06
3.08241e-08
-6.77413e-06
6.82056e-06
-4.64358e-08
-5.14573e-06
5.1e-06
4.57305e-08
-6.79581e-06
2.1685e-08
5.12584e-06
-1.05261e-08
2.84084e-07
-5.29904e-06
5.01496e-06
6.79422e-06
-6.8243e-06
3.00733e-08
5.52679e-06
-5.78544e-06
6.79347e-06
-6.79273e-06
-7.41745e-10
-4.34172e-06
4.34172e-06
-5.34551e-06
5.34551e-06
-6.78567e-06
-1.01425e-08
-3.17094e-06
3.75948e-06
-6.80507e-06
6.79506e-06
1.00101e-08
5.30581e-08
6.81136e-06
4.24376e-06
-3.75948e-06
-4.24376e-06
4.48268e-06
4.50537e-06
-5.17913e-06
6.21229e-06
-3.68133e-06
-2.53096e-06
-6.82944e-06
-2.89265e-08
-9.84768e-07
-4.48268e-06
5.46745e-06
6.82088e-06
2.56632e-08
-5.16768e-06
4.78934e-06
6.84046e-06
-6.82664e-06
-1.38189e-08
-6.80032e-06
-5.12141e-06
5.14453e-06
-1.58962e-07
-1.82127e-08
6.83648e-06
6.80788e-06
-5.06142e-06
-6.97014e-06
-4.08963e-06
5.22572e-06
-1.13609e-06
-6.77036e-06
-2.44786e-08
6.79903e-06
8.28394e-09
3.96522e-06
-4.05057e-06
8.53435e-08
7.80052e-09
4.77744e-06
-4.96935e-06
1.91913e-07
3.13301e-06
3.18679e-06
-6.82636e-06
-2.51921e-08
-5.17008e-06
6.76913e-06
-6.76348e-06
-5.64934e-09
6.8182e-06
2.19504e-08
-6.83794e-06
6.83059e-06
7.34897e-09
5.22684e-06
5.14831e-06
-6.78649e-06
6.77165e-06
1.48394e-08
6.83439e-06
-6.83139e-06
-3.00028e-09
-5.08258e-06
5.14349e-06
6.78328e-06
-6.78328e-06
2.6994e-08
6.84075e-06
-4.28311e-06
-9.14426e-07
6.79752e-06
-3.30136e-09
-8.73987e-07
4.64343e-06
-3.76944e-06
6.78009e-06
-6.77422e-06
-5.86954e-09
2.0747e-08
6.8079e-06
6.76777e-06
-6.77379e-06
6.01335e-09
-6.84686e-06
-6.82225e-06
-4.10853e-06
5.86891e-09
6.82816e-06
-7.15577e-09
-6.80379e-06
6.81094e-06
-6.78374e-06
6.76894e-06
1.47976e-08
-6.82608e-06
-1.1855e-08
-5.16736e-06
-4.99032e-06
1.66946e-08
6.81913e-06
1.146e-08
-6.77759e-06
6.77473e-06
2.86254e-09
-6.78225e-06
2.54878e-08
6.75676e-06
6.82404e-06
1.64134e-08
-6.80293e-06
-2.37083e-08
-4.96218e-06
-2.33821e-08
6.82069e-06
-6.8249e-06
4.20411e-09
6.78021e-06
-6.78736e-06
-6.79419e-06
6.78482e-06
9.37105e-09
6.77726e-06
-6.77177e-06
-5.49119e-09
5.11028e-06
4.4993e-09
6.82295e-06
1.14337e-08
-6.81344e-06
-1.79465e-08
-6.83845e-06
5.14453e-06
-6.7809e-06
6.76739e-06
1.35126e-08
4.5007e-06
-4.79439e-06
-6.76177e-06
6.78712e-06
-2.53524e-08
6.78272e-06
-6.79284e-06
1.01187e-08
-1.65482e-08
-6.81951e-06
-6.57023e-09
-1.7672e-08
-6.01995e-06
4.27103e-06
-1.16302e-08
6.78021e-06
-1.12324e-08
-7.22791e-09
-6.82526e-06
5.74757e-09
2.60984e-06
5.73436e-06
-8.3442e-06
-1.41309e-06
6.82075e-06
-5.09315e-11
-6.8079e-06
1.25593e-08
6.80121e-06
-6.81203e-06
-1.28634e-08
-5.1272e-06
-6.83205e-06
6.78982e-09
2.38432e-08
6.79925e-06
-1.07417e-09
3.22746e-08
-6.71645e-06
6.68417e-06
6.83015e-06
-6.82666e-06
-3.48547e-09
-5.21878e-06
9.3567e-07
6.81699e-06
-6.80505e-06
-1.19415e-08
-6.82149e-06
-5.05792e-06
-2.66695e-07
6.77583e-06
-6.77048e-06
-5.35183e-09
3.55816e-08
-6.72284e-06
6.68725e-06
-6.82844e-06
6.81572e-06
1.2725e-08
-5.16298e-06
5.12036e-06
4.26167e-08
6.00217e-09
-6.82838e-06
-3.66851e-09
-5.19172e-06
1.07698e-06
4.11474e-06
-6.81947e-06
-8.97837e-09
6.8279e-06
2.243e-09
-6.81672e-06
-9.93909e-09
-2.7132e-08
-6.82882e-06
4.3909e-10
-4.91046e-06
-5.73136e-07
5.4836e-06
3.92351e-06
2.86709e-08
-6.80121e-06
5.12139e-06
-2.13957e-08
-6.77547e-06
6.77547e-06
-1.31023e-08
6.82463e-06
3.27577e-09
-5.40617e-09
1.06045e-08
1.09188e-08
6.82721e-06
-2.5833e-09
4.0243e-09
6.82543e-06
-6.82549e-06
5.73935e-11
4.92659e-06
-4.92659e-06
-6.81134e-06
6.79671e-06
1.46362e-08
6.7868e-06
-6.77983e-06
-6.96502e-09
-9.57416e-09
6.82294e-06
4.27083e-09
6.82327e-06
2.16556e-09
-2.5529e-09
6.82394e-06
6.81728e-06
-6.82105e-06
3.77338e-09
-6.88306e-06
-6.79548e-06
-1.58592e-08
5.25364e-06
-6.43765e-08
6.81117e-06
6.10594e-09
5.7106e-08
6.81635e-06
-6.80888e-06
-7.47218e-09
-4.86888e-06
4.86888e-06
3.81401e-08
6.78691e-06
-6.77437e-06
6.78525e-06
-1.08759e-08
6.8149e-06
1.44538e-09
5.33565e-08
5.09491e-06
6.80684e-06
-6.80427e-06
-2.56465e-09
-6.75317e-06
-2.12035e-08
6.78759e-06
-6.79314e-06
5.55341e-09
6.80244e-06
4.39829e-09
6.81502e-06
8.25087e-09
-6.75524e-08
-6.73623e-06
-1.12744e-08
-6.00237e-07
-4.57718e-06
6.77694e-06
-6.78351e-06
6.57053e-09
2.03515e-07
4.72308e-06
6.80597e-06
-6.79959e-06
-6.38088e-09
-6.03056e-09
-1.16263e-07
-5.66248e-06
5.77874e-06
-4.92985e-06
4.9859e-06
-5.60482e-08
-6.74517e-06
6.74733e-06
-2.16348e-09
6.79813e-06
7.83411e-09
-6.77804e-06
-4.23744e-06
6.84729e-06
6.80079e-06
-6.79112e-06
-9.66414e-09
-6.80738e-06
6.80756e-06
-1.75114e-10
6.78781e-06
-6.78166e-06
-6.15363e-09
-6.59823e-07
-5.82201e-06
6.48183e-06
6.79381e-06
6.97737e-09
-6.75032e-06
5.15936e-09
6.80177e-06
-6.79305e-06
-8.71533e-09
5.11028e-06
-5.23355e-06
5.23355e-06
6.79924e-06
-6.78644e-06
-1.28013e-08
-1.31248e-08
6.80198e-06
-1.06764e-08
-5.11751e-06
6.78966e-06
9.58196e-09
-6.80676e-06
-1.27041e-08
-6.73998e-06
6.74356e-06
-3.57661e-09
6.80746e-06
3.70764e-09
1.14918e-07
6.73904e-06
-1.41529e-09
6.80111e-06
1.72515e-08
5.0941e-06
2.72919e-08
7.95953e-10
-6.74663e-06
6.6496e-09
5.19638e-07
1.88605e-08
2.19594e-07
6.78145e-06
-6.78781e-06
6.36033e-09
-6.73283e-06
6.74066e-06
-7.82819e-09
1.20491e-07
-5.10133e-06
4.98084e-06
9.11852e-07
-5.31378e-06
4.40192e-06
1.94831e-06
4.81715e-06
-4.81715e-06
6.77677e-06
-6.77677e-06
-5.58045e-06
3.11896e-09
-6.78961e-06
5.20068e-06
6.79962e-06
1.52883e-08
-1.28282e-06
-2.38472e-06
3.66754e-06
-6.74265e-06
9.81619e-09
-6.74649e-06
-2.18853e-07
2.88317e-06
-4.75753e-06
1.87437e-06
-4.65576e-09
4.60407e-08
6.74108e-06
1.84973e-08
5.10735e-06
-6.80923e-06
1.43205e-08
6.78178e-06
4.32614e-06
-5.2786e-06
9.52453e-07
4.40255e-06
-1.51939e-06
-8.47038e-09
-6.77527e-06
6.81023e-06
-6.76419e-06
-6.79075e-06
-6.72394e-06
6.71755e-06
6.38342e-09
1.49736e-09
6.79357e-06
6.76974e-06
7.03094e-09
6.18594e-06
-4.10521e-06
-2.08073e-06
-2.4198e-08
5.16768e-06
6.79172e-06
1.07143e-08
6.1836e-06
-6.84342e-06
4.58878e-08
6.74091e-06
-8.0054e-09
-6.77289e-06
-6.73179e-06
7.85091e-09
-4.94532e-06
1.5473e-08
5.19575e-06
-4.16579e-06
-1.02996e-06
6.75768e-06
-6.75827e-06
5.87981e-10
-7.86238e-09
1.9499e-06
-2.74079e-06
-2.56801e-06
5.3088e-06
6.77025e-06
-6.78067e-06
1.0423e-08
5.39511e-06
-5.33199e-06
-1.90525e-08
5.16736e-06
-4.43753e-06
3.15471e-06
6.76343e-06
-6.77023e-06
6.80182e-09
6.8023e-06
-6.75641e-06
-5.09556e-06
1.6897e-07
-5.11512e-06
5.10888e-06
6.23245e-09
4.96935e-06
-5.08562e-06
1.07713e-07
6.73682e-06
-5.16021e-06
5.00574e-06
-1.82232e-07
6.79179e-06
-6.78356e-06
-8.23225e-09
5.28842e-06
-5.05203e-06
-2.36393e-07
6.76974e-06
-4.08557e-09
-6.77351e-06
-5.00697e-06
1.66455e-08
6.27674e-07
3.84618e-06
-4.47386e-06
-6.71535e-06
6.70807e-06
7.28396e-09
6.75909e-06
2.36363e-08
-4.28087e-06
-8.98264e-07
4.9153e-08
6.73866e-06
6.7806e-06
-6.79641e-06
1.58113e-08
6.77225e-06
-1.25148e-08
-6.75097e-06
-5.29636e-06
-8.92634e-07
6.78405e-06
1.40856e-08
7.21222e-06
-1.47787e-06
-4.10215e-08
6.77728e-06
-6.73626e-06
6.77432e-06
6.27517e-09
-6.7249e-06
9.54729e-09
-6.74448e-06
-4.82477e-08
-1.29481e-08
6.68676e-06
-6.67381e-06
8.79309e-09
6.77449e-06
6.80319e-06
-6.75403e-06
-6.78178e-06
-2.55503e-08
5.17008e-06
-7.07603e-09
5.12831e-06
-2.65146e-07
-4.86316e-06
6.89295e-08
5.05938e-06
-6.69629e-06
6.68334e-06
-6.78081e-06
-1.46735e-08
4.30449e-06
8.91261e-07
-2.57325e-08
5.24495e-06
-5.21921e-06
-4.34455e-06
-3.63472e-06
4.2624e-06
-5.66794e-06
7.00488e-07
4.96745e-06
6.77162e-06
5.1624e-09
-6.77938e-06
6.72395e-08
6.74299e-06
6.76145e-06
-6.76244e-06
9.96351e-10
6.77623e-06
-6.75607e-06
-2.01632e-08
-6.78539e-06
4.44094e-09
-9.79728e-09
-5.11997e-06
5.12976e-06
9.83863e-10
6.78383e-06
-4.70681e-06
1.37763e-06
-6.77649e-06
6.77271e-06
3.78154e-09
-6.70592e-06
6.69793e-06
7.98816e-09
6.57428e-08
5.54381e-06
-5.38254e-06
4.06245e-06
-9.72255e-08
-3.51382e-08
6.78107e-06
-6.74593e-06
-6.04697e-06
3.30618e-06
6.76926e-06
5.99505e-09
-6.77777e-06
6.77631e-06
1.74975e-08
-6.33381e-06
6.36857e-08
6.27012e-06
1.05896e-08
-6.71651e-06
6.76291e-06
-6.7558e-06
-7.10998e-09
-2.13952e-07
6.80299e-06
-6.58903e-06
-1.01286e-08
-1.39021e-06
6.36617e-06
-4.97596e-06
-5.09556e-06
-5.65349e-06
6.76717e-06
-3.73971e-09
5.93524e-08
6.74294e-06
6.59741e-06
6.831e-06
-6.82577e-06
-5.22322e-09
-2.86021e-10
-5.12786e-06
5.12815e-06
-6.77105e-06
6.76646e-06
4.59296e-09
1.36774e-07
-5.09896e-06
4.96218e-06
6.78001e-06
-6.77718e-06
-2.83435e-09
-5.24982e-06
5.22408e-06
6.76006e-06
-6.75486e-06
-5.20178e-09
1.89595e-08
6.75727e-06
-7.32732e-08
6.79607e-06
-6.77542e-06
7.11713e-08
-4.99812e-06
6.77503e-06
-6.77388e-06
-1.15479e-09
6.77174e-06
3.95662e-09
-6.77443e-06
6.73708e-06
1.43174e-08
-6.7514e-06
1.61378e-09
6.77591e-06
-6.75695e-06
-1.60719e-08
-5.13099e-06
5.14706e-06
3.63797e-06
-5.35348e-06
1.71552e-06
-1.1415e-06
-5.19231e-06
-4.9732e-06
-1.11957e-06
-4.36674e-06
-6.76759e-06
3.89716e-08
6.72862e-06
-5.16231e-06
5.13099e-06
3.13255e-08
-1.57084e-06
-4.1534e-06
-6.76412e-06
6.03872e-06
-6.75013e-06
6.762e-06
-1.18739e-08
-5.64172e-06
5.6098e-07
5.08074e-06
5.38448e-06
-4.13777e-06
-1.2467e-06
-6.77374e-06
1.35612e-08
6.76018e-06
5.13898e-06
-5.07495e-06
1.41519e-08
6.74876e-06
-6.77449e-06
6.87273e-09
6.7686e-06
6.76766e-06
2.20014e-08
-1.12019e-09
-6.77267e-06
-2.18572e-08
-6.75464e-06
-6.7569e-06
5.1329e-06
-5.06921e-06
-2.87491e-08
1.44657e-06
4.4786e-06
-4.63763e-06
4.63763e-06
5.87145e-08
6.74447e-06
-7.67763e-06
-6.2466e-06
6.24632e-06
6.77682e-06
5.12918e-06
-5.0925e-06
-6.76636e-06
6.7445e-06
-5.71883e-06
5.85561e-06
6.76167e-06
-6.75577e-06
-5.90536e-09
8.17103e-09
6.76877e-06
-6.84787e-06
5.15301e-06
-5.16908e-06
-6.76448e-06
1.13115e-08
2.54711e-06
6.78105e-06
-6.77281e-06
-8.23885e-09
-6.77664e-06
6.76199e-06
-6.75635e-06
-5.63952e-09
-6.76084e-06
-6.75123e-09
6.74656e-06
-6.7259e-06
-5.17243e-06
6.21761e-06
6.75616e-06
-6.75394e-06
-2.2268e-09
-1.19155e-08
6.749e-06
-5.16231e-06
4.47387e-06
-4.84887e-06
3.75001e-07
-8.32129e-06
8.32129e-06
6.77361e-06
6.77494e-06
-1.71532e-08
1.13224e-08
-6.77309e-06
6.79652e-06
-2.34296e-08
6.75995e-06
-6.7543e-06
-5.6511e-09
-5.60975e-06
5.34305e-06
2.08219e-08
6.75646e-06
-6.77367e-06
1.82685e-08
6.7554e-06
-6.75387e-06
6.76846e-06
-6.75939e-06
-5.18713e-06
-6.76805e-06
2.25722e-08
6.74548e-06
-5.19481e-06
-1.45811e-08
5.07019e-06
-5.10885e-06
3.86668e-08
6.75109e-06
-6.75678e-06
5.69017e-09
1.24861e-07
-6.76794e-06
6.75673e-06
1.12077e-08
6.76345e-06
-4.95893e-06
-4.92386e-06
-8.31042e-08
6.7723e-06
-6.7723e-06
-3.4739e-08
5.14502e-06
-6.7686e-06
6.75869e-06
-6.75305e-06
-5.63887e-09
6.77134e-06
-3.76886e-08
-6.76276e-06
-5.03409e-06
-6.28381e-07
-5.16039e-06
4.04583e-06
-4.51895e-06
4.73121e-07
-1.0135e-06
-4.36911e-06
5.38261e-06
6.74631e-06
-6.72846e-06
4.37098e-06
-5.10133e-06
-1.45491e-08
-6.75919e-06
6.76232e-06
-6.75671e-06
-5.60835e-09
5.19519e-06
-5.22078e-06
-1.42969e-06
-9.42915e-07
2.37261e-06
-5.38931e-06
5.43438e-06
5.21395e-06
-5.14502e-06
-2.04753e-08
-5.05611e-06
5.07658e-06
-2.37253e-08
-5.01774e-06
5.04146e-06
1.69625e-08
-5.25697e-06
5.24e-06
4.80811e-08
-5.27815e-06
5.23007e-06
2.4294e-08
-5.1726e-06
5.1483e-06
-1.01552e-08
-5.06225e-06
5.0724e-06
-1.19121e-08
-5.05803e-06
5.06994e-06
3.04569e-06
-2.05201e-06
-9.93683e-07
4.49138e-06
3.2888e-08
6.74818e-06
4.95168e-06
-4.97906e-06
2.73809e-08
1.59037e-08
-6.75966e-06
6.74376e-06
6.77713e-06
-6.77713e-06
6.68739e-06
-1.6889e-09
-6.6857e-06
-2.24642e-08
-6.7439e-06
6.7582e-06
-6.75231e-06
-5.88245e-09
-4.20031e-06
-5.51543e-06
-1.2629e-07
4.42875e-06
8.59674e-07
6.7717e-06
-6.76264e-06
-9.06061e-09
-5.15473e-06
5.35578e-06
2.23999e-08
6.75351e-06
-3.71488e-06
-2.3321e-06
4.96614e-08
4.85245e-06
-4.90212e-06
-3.4648e-06
-5.85764e-07
-1.16248e-06
-7.20302e-07
1.88278e-06
5.08384e-06
5.08466e-06
5.30712e-06
5.30715e-06
5.27028e-06
5.20311e-06
-2.36701e-08
-5.09803e-06
5.1217e-06
5.10048e-06
-6.37892e-09
-2.00941e-06
6.76037e-06
-6.74446e-06
-1.66854e-07
5.43755e-06
-6.78096e-06
-4.62966e-06
5.72267e-06
6.67836e-06
5.93921e-09
-6.6843e-06
6.786e-06
-1.36967e-08
-6.77145e-06
2.42532e-08
6.74719e-06
-5.10696e-06
-5.11997e-06
5.1195e-06
-5.14317e-06
-4.6596e-06
5.63016e-06
-9.70558e-07
-1.20804e-08
-6.75597e-06
3.52878e-06
-4.40277e-06
1.11643e-08
-6.76696e-06
-6.75901e-06
-1.79821e-06
-2.63932e-06
-6.74689e-06
-1.2771e-08
5.18021e-06
1.616e-06
3.93798e-06
6.75166e-06
-6.74646e-06
-5.1984e-09
5.14758e-06
-3.40984e-06
-1.73774e-06
-2.45047e-06
1.28799e-06
-2.83993e-06
6.14611e-06
-2.463e-06
5.1204e-06
-2.6574e-06
2.05043e-09
6.7682e-06
-6.72196e-06
6.75635e-06
-6.76029e-06
3.9462e-09
-3.82704e-06
1.63273e-06
2.19431e-06
-2.25978e-08
-5.09653e-06
5.11913e-06
7.07737e-06
-3.1343e-06
-3.94307e-06
5.06403e-09
6.68232e-06
-1.47083e-06
-2.35621e-06
-4.938e-06
4.98766e-06
4.21203e-06
2.79349e-07
-4.91316e-06
-1.03728e-08
-5.10378e-06
5.11416e-06
5.27271e-06
-5.10913e-06
-3.13969e-06
-1.18979e-06
4.32949e-06
-6.74602e-06
6.74798e-06
-1.96426e-09
-4.98825e-06
5.05942e-06
6.75352e-06
-6.7579e-06
-4.51476e-06
-1.2287e-07
-6.80366e-06
6.77792e-06
-3.52284e-06
5.10438e-09
6.75689e-06
5.8943e-06
-3.25762e-06
-2.63668e-06
4.99036e-06
-9.44534e-07
5.57344e-06
-7.20982e-07
5.11126e-06
-5.13386e-06
6.74429e-06
-6.74463e-06
3.48714e-10
5.11733e-06
-5.1277e-06
6.20402e-09
-6.74086e-06
6.73466e-06
-2.84382e-06
-6.79023e-07
1.16975e-08
-5.18413e-06
-6.75987e-06
9.54303e-09