/*--------------------------------*- C++ -*----------------------------------*\
  =========                 |
  \\      /  F ield         | OpenFOAM: The Open Source CFD Toolbox
   \\    /   O peration     | Website:  https://openfoam.org
    \\  /    A nd           | Version:  12
     \\/     M anipulation  |
\*---------------------------------------------------------------------------*/
FoamFile
{
    format      ascii;
    class       volVectorField;
    location    "0.24";
    object      U;
}
// * * * * * * * * * * * * * * * * * * * * * * * * * * * * * * * * * * * * * //

dimensions      [0 1 -1 0 0 0 0];

internalField   nonuniform List<vector> 
4428
(
(0.00182574 0.000692275 1.01427e-16)
(-0.00184924 0.000762161 -9.03816e-17)
(-0.00166605 0.000762831 0)
(-0.0017388 0.00073228 0)
(0.00167426 0.00138386 8.1638e-17)
(0.00172364 0.00141577 3.21083e-21)
(-0.00166134 0.00094471 0)
(-0.00186553 0.000665983 1.46408e-16)
(0.00178561 0.000725171 -2.49062e-16)
(0.00183978 0.00053902 9.95362e-17)
(-0.0016891 0.000591001 -1.73328e-16)
(0.00171603 0.000712295 -1.7686e-16)
(-0.00191225 0.000411575 -2.03655e-16)
(-0.000601414 0.00214826 -9.58142e-17)
(0.00179747 0.00069943 0)
(0.0016369 0.000605135 0)
(0.00184844 0.000663181 0)
(-0.00169039 0.000588945 0)
(-0.00192424 0.000410196 0)
(0.00181548 0.000703291 0)
(0.000647544 0.000530916 -4.48033e-16)
(-0.00184028 0.000706542 -1.77699e-16)
(-0.00173939 0.000736996 0)
(-0.00188492 0.00065052 0)
(-0.00183172 0.000698618 2.26614e-17)
(-0.00174012 0.000648713 0)
(-0.00175596 0.000922213 1.03355e-16)
(0.00176078 0.000580487 2.078e-16)
(0.00164124 0.000806576 0)
(-0.00193177 0.000453449 0)
(0.0017833 0.000448799 0)
(-0.00186189 0.000705507 -1.84201e-16)
(0.00181718 0.00057771 -9.00182e-17)
(-0.00188744 0.000912686 -2.77417e-16)
(-8.89006e-06 0.00248237 4.69763e-17)
(-0.00185793 0.000722858 1.99859e-16)
(-0.00181782 0.000910326 -4.43495e-21)
(0.00169137 0.00227999 1.2704e-17)
(-0.000280398 0.00214951 -2.62229e-17)
(-0.00174236 0.00076268 0)
(0.00182638 0.000657928 0)
(0.00167201 0.000542747 0)
(0.00174783 0.000596791 9.24306e-17)
(-0.00189488 0.000612224 1.66055e-16)
(0.00182424 0.000584997 0)
(0.00149216 0.000556157 0)
(0.00175012 0.00166909 -9.97818e-17)
(-0.00173927 0.00083904 2.0314e-16)
(-0.00176295 0.000735576 2.24456e-16)
(-0.00181787 0.00079711 0)
(0.00182066 0.000758484 0)
(0.00163941 0.000775643 1.8812e-16)
(0.00185444 0.000530293 -9.13171e-17)
(0.00166191 0.000794379 0)
(0.00169459 0.000713512 -1.39782e-17)
(0.00108939 0.00052445 0)
(0.00161504 0.000764158 -9.29913e-17)
(-0.00178536 0.000589717 0)
(0.00152001 0.00162783 1.82957e-16)
(0.00178055 0.000616303 -1.82008e-16)
(0.00186139 0.000716518 1.67094e-16)
(-0.00185665 0.000593145 0)
(0.00162455 0.000648625 2.79948e-16)
(-0.0018575 0.000701978 9.26968e-17)
(-0.00185395 0.000724278 0)
(0.00170909 0.000751533 0)
(-0.00189478 0.000623311 1.73155e-16)
(-0.00175324 0.000746617 -1.85818e-16)
(0.00176362 0.000630639 -1.82183e-16)
(-0.00179128 0.000779615 -3.61903e-16)
(-0.00190198 0.00059743 -9.16117e-17)
(0.00179447 0.000815508 2.1265e-16)
(0.0019372 0.000841388 5.80494e-17)
(-0.00172748 0.000717613 4.46946e-17)
(0.00181919 0.000634845 1.96646e-16)
(-3.187e-05 0.00245945 -1.83291e-16)
(0.00185173 0.000845946 0)
(0.00190598 0.00073667 0)
(-0.00167709 0.000951055 -1.18142e-16)
(0.00130938 0.000624453 -4.37055e-21)
(0.00162626 0.000832549 -1.97536e-16)
(-0.00188906 0.000599671 0)
(0.00175734 0.000838028 -1.81061e-16)
(0.00176471 0.000727663 -1.72063e-16)
(0.00185106 0.000659801 3.183e-16)
(-0.00201288 0.000649253 -2.54684e-16)
(-0.000230556 0.00275561 1.15141e-16)
(-0.00188633 0.000690282 0)
(-0.0018528 0.000709251 -9.60326e-17)
(0.00169619 0.000744042 2.04739e-17)
(0.00182056 0.000549948 8.36639e-17)
(0.00186708 0.000668399 -1.59366e-16)
(-0.00186969 0.000744409 0)
(-0.00184295 0.00068523 0)
(-0.00185348 0.000725079 9.81679e-17)
(-0.00180274 0.000749668 1.67117e-16)
(0.00182376 0.000725566 1.13529e-16)
(-0.00186948 0.000709596 -1.19901e-16)
(-0.0019041 0.000592571 9.28693e-17)
(0.00171825 0.000913295 0)
(0.00172918 0.000782128 -2.25138e-17)
(0.001785 0.000698239 0)
(0.00182927 0.000646215 0)
(0.00165473 0.000618673 -1.87984e-16)
(0.00159664 0.000743037 -1.037e-16)
(0.00168554 0.000815594 2.49178e-21)
(0.00177609 0.000731047 1.90323e-16)
(-0.00182134 0.000867258 -1.22453e-16)
(0.00182141 0.000725661 -1.2082e-16)
(0.00174884 0.000851927 0)
(0.00177945 0.000594885 1.64694e-16)
(0.00179031 0.000688324 -1.94802e-16)
(-0.00172599 0.000708327 2.65345e-21)
(0.00170455 0.000646281 1.65962e-16)
(-0.00102549 0.000645896 1.15541e-16)
(-0.00189585 0.000580955 1.8023e-16)
(-0.000415854 0.00239006 0)
(0.00073751 0.00057413 5.24743e-17)
(-0.00191874 0.000641112 8.87639e-17)
(0.00190675 0.00073571 -1.12858e-16)
(0.00188647 0.000735856 2.11527e-16)
(-0.00167902 0.000957935 2.41273e-16)
(0.00123847 0.00202633 -1.96892e-16)
(0.00180186 0.000583258 -3.03615e-16)
(-9.17814e-06 0.00248274 1.78756e-16)
(-0.00185869 0.000701741 0)
(-0.00188548 0.000638377 -2.72254e-16)
(0.00171604 0.000710942 9.95077e-17)
(-0.00185487 0.000755184 -3.04096e-16)
(-0.00185598 0.000721874 9.66755e-17)
(-0.00190031 0.00060246 -1.8713e-16)
(-0.00182059 0.000749329 0)
(0.00183174 0.000731328 2.24123e-16)
(0.00175911 0.000655936 0)
(0.00178348 0.00069659 0)
(0.00190576 0.000823304 6.5418e-21)
(0.00186425 0.000777747 -2.43666e-16)
(-0.00189188 0.000588333 -1.82386e-16)
(-0.00186004 0.000720364 -1.83548e-16)
(-0.00184256 0.000746839 1.43947e-16)
(-0.00182903 0.000877184 -1.23704e-16)
(-0.00186246 0.00067331 -9.67472e-17)
(0.00175561 0.000702768 0)
(0.00176484 0.000720794 -1.99426e-16)
(0.00184967 0.000694431 0)
(0.0017418 0.000668273 9.67635e-17)
(0.00186672 0.000833365 1.28472e-16)
(-4.88282e-05 0.00176349 -9.13937e-17)
(0.00194994 0.000547582 2.88884e-16)
(3.3531e-07 0.00247634 4.54401e-17)
(-0.00185748 0.000701566 -1.99511e-16)
(-0.00121149 0.00053673 1.00283e-16)
(0.00173924 0.000576993 -9.60149e-21)
(0.00193606 0.000671402 -2.4862e-16)
(-0.00185473 0.000721594 2.91591e-16)
(0.00188619 0.000706401 0)
(0.00170251 0.00114952 -1.77125e-16)
(0.00183702 0.00055106 -9.48472e-17)
(0.00179435 0.000663227 -1.78765e-16)
(-0.00187349 0.000615475 -9.12333e-17)
(-0.00184715 0.000766949 1.95445e-16)
(0.00180318 0.000711963 0)
(0.00193132 0.000609422 0)
(-0.000651352 0.000291329 -2.17177e-16)
(-0.00196741 0.000815121 1.19562e-16)
(-0.00189342 0.000593777 0)
(-0.00185214 0.000678997 0)
(0.00192813 0.000646662 0)
(-0.00184989 0.000717772 1.90638e-21)
(-0.00186922 0.000799378 9.36776e-17)
(-0.00189897 0.000627014 -9.37986e-17)
(0.0018635 0.000736481 3.95914e-21)
(-0.00186868 0.000705915 0)
(0.00168829 0.000708992 0)
(0.00171417 0.00222007 -1.16372e-17)
(-0.00198915 0.000827558 2.29074e-16)
(0.00187139 0.000678584 0)
(0.00164266 0.00081697 2.14587e-16)
(0.00174871 0.000733507 2.17937e-16)
(-0.00198829 0.000802716 1.14317e-16)
(-0.000213742 0.00250223 -7.08851e-21)
(-0.0017918 0.000734143 1.75077e-16)
(-0.00187141 0.000656816 1.91949e-16)
(0.00170785 0.000659549 0)
(-0.00185665 0.000701945 3.00569e-16)
(-0.00185189 0.00085254 -9.52161e-17)
(0.00184134 0.000712056 0)
(-0.00185224 0.000720457 0)
(0.00156642 0.000684733 3.43568e-16)
(0.00180494 0.000797518 0)
(0.0017948 0.000656415 0)
(0.00187726 0.000891355 2.58467e-17)
(0.00182527 0.000651087 0)
(0.00185673 0.000768343 -3.67869e-16)
(-0.00180608 0.000843543 0)
(-0.0017969 0.000831932 -1.80866e-16)
(-0.00179671 0.00082968 2.70921e-16)
(-0.00176979 0.000815113 8.88768e-17)
(0.0025239 0.00146106 1.48756e-16)
(-0.000560541 0.00264888 0)
(0.00183138 0.000833393 2.13762e-16)
(-0.00186972 0.000677081 -1.94079e-16)
(0.00143898 0.000770215 -1.90307e-16)
(-0.00188022 0.000613451 0)
(0.00166977 0.000641958 -1.7663e-16)
(0.00181121 0.000636384 -2.98056e-18)
(-0.00184617 0.000719281 9.32574e-17)
(-0.00040991 0.00286794 -1.77906e-16)
(-0.000891681 0.00248461 1.11839e-17)
(0.00122865 0.000646523 0)
(0.0018509 0.000792001 0)
(0.00198303 0.000713426 0)
(0.0018459 0.000776092 5.94939e-21)
(-0.00186665 0.000657905 0)
(0.0018022 0.000687915 0)
(-0.00181813 0.000824889 -1.40088e-16)
(-0.00179848 0.000813008 1.83783e-16)
(3.23632e-05 0.0024795 -1.84691e-16)
(-0.00174622 0.000659007 1.99297e-16)
(-0.00178903 0.00082482 -4.53589e-17)
(0.00184667 0.000766457 1.95363e-16)
(0.00192279 0.000674315 -6.15109e-17)
(-0.00184226 0.00071659 1.85468e-16)
(0.00187994 0.000808882 0)
(-0.00180552 0.00083061 0)
(-0.00185657 0.000702953 0)
(-0.00188521 0.000716872 -1.08725e-16)
(0.00179455 0.000647226 -1.93042e-16)
(0.00171485 0.000716487 3.73621e-21)
(-0.00185165 0.000720392 0)
(-0.00185833 0.000675488 9.83234e-17)
(-0.00114081 0.0022638 0)
(0.0015605 0.000926244 0)
(0.00027135 0.00273338 8.61735e-17)
(0.00174651 0.000698809 5.74624e-17)
(-0.00181572 0.000805457 0)
(-0.0018067 0.000820133 0)
(-0.00180547 0.000815027 1.88216e-16)
(-0.00181296 0.000812397 -1.86173e-16)
(-0.00187675 0.000623534 2.97767e-16)
(-0.000183124 0.000454183 5.13887e-17)
(-0.00188186 0.000718933 -5.90058e-17)
(-0.00178614 0.000813938 6.23696e-17)
(0.00181355 0.000711416 2.23734e-17)
(-0.00186357 0.000663396 -9.62578e-17)
(-0.000510834 0.00185205 -1.01155e-16)
(-0.00184313 0.000879239 1.89325e-16)
(-0.00186546 0.000666034 1.92815e-16)
(0.00214797 0.00143656 0)
(-0.000208488 0.00187172 0)
(-0.00194071 0.00080542 6.11489e-21)
(0.00176173 0.000701251 2.04394e-16)
(0.00186639 0.000758774 -1.05648e-16)
(-0.00180185 0.000813363 1.81887e-16)
(0.00162183 0.000604704 -1.31317e-16)
(0.000316954 0.000216316 1.07918e-16)
(-0.00180784 0.000815571 -3.65585e-16)
(3.92868e-05 0.00246302 0)
(-0.00211208 0.000769833 -3.66783e-17)
(-0.00181954 0.00081226 -2.11761e-16)
(-0.00181311 0.000813027 1.90018e-16)
(-0.000641673 0.000325622 2.17218e-16)
(-0.00185646 0.000679831 0)
(0.00194353 0.000431281 1.23012e-16)
(-0.00180539 0.000810863 -9.37842e-17)
(-0.00184498 0.000717075 -1.00072e-16)
(0.00184034 0.000667276 0)
(-0.00180896 0.000814551 0)
(-0.00124983 0.00273829 1.37275e-16)
(-0.0019152 0.000646723 -1.83736e-16)
(0.00179823 0.000621716 0)
(0.00188042 0.000846145 2.37177e-16)
(0.00179949 0.000717003 1.23124e-17)
(-0.000380901 0.00200082 2.58439e-16)
(-0.00185791 0.00070234 0)
(0.00174775 0.000737965 1.98131e-16)
(0.00181523 0.000696008 -2.63561e-16)
(-0.00186014 0.000674375 1.94296e-16)
(0.00190759 0.000896918 0)
(0.000304376 0.000213386 -1.10465e-16)
(-0.00199344 0.00083437 -2.35184e-22)
(-0.000339995 0.00255464 9.63399e-17)
(0.00180676 0.000673351 0)
(-0.00187335 0.000631544 -2.99175e-16)
(0.00166941 0.000949903 3.93343e-16)
(0.00164134 0.000963952 -9.12434e-17)
(0.00182361 0.000713231 -1.3295e-17)
(0.00182428 0.000613899 -1.26246e-16)
(0.00182315 0.000719488 1.94436e-16)
(0.00184527 0.000678108 0)
(-0.00203828 0.000627771 1.43577e-16)
(-0.00192322 0.000625781 -1.8709e-16)
(-0.00182026 0.000801058 -7.47192e-19)
(0.00173004 0.0008226 0)
(0.00169418 0.000726579 2.1467e-16)
(0.000583179 0.00021678 2.31985e-16)
(-0.00184652 0.000689125 1.95533e-16)
(-0.00180369 0.000809306 2.07962e-16)
(-0.00184376 0.000827286 0)
(-0.00114122 0.00267356 1.9676e-16)
(-0.00186327 0.000678674 5.91847e-21)
(0.00171896 0.000633758 1.14694e-16)
(-0.00185464 0.000683501 0)
(-0.00181487 0.000810921 -1.18782e-17)
(-0.00181396 0.000816477 0)
(-0.00181309 0.00081446 -1.85911e-16)
(-0.00186937 0.000720791 0)
(-0.000243329 0.00272693 -1.19591e-16)
(0.00123886 0.000682284 -3.44557e-16)
(0.00180642 0.000897312 1.25596e-16)
(-0.00185997 0.000679768 9.79706e-17)
(0.00177663 0.000700731 0)
(0.00189935 0.000881441 -1.26565e-16)
(-0.000314465 0.00270758 -1.90453e-16)
(0.00112046 0.00037697 -2.23906e-16)
(0.00180047 0.000737343 0)
(0.00185122 0.000807583 0)
(0.00178537 0.000759283 -1.87615e-16)
(-0.00187076 0.000641065 0)
(-0.00184723 0.000704955 1.96569e-16)
(-0.000455938 0.00297898 -6.176e-18)
(-0.00195902 0.000824862 -1.0149e-16)
(-0.0017202 0.000661802 6.10873e-17)
(0.00176602 0.000683958 3.89321e-16)
(-0.00131809 0.00406828 -1.46075e-16)
(0.00302219 0.00118913 -1.97875e-16)
(0.00171538 0.00076204 -2.12583e-16)
(-0.00183616 0.000708403 9.64301e-17)
(-0.00183615 0.000850454 -1.21773e-17)
(-0.00179899 0.000822144 -1.89494e-16)
(0.00179664 0.000685016 2.09788e-16)
(-0.00183949 0.000701862 0)
(-0.00185534 0.000685199 9.90844e-17)
(-0.00210921 0.000764006 1.50957e-16)
(-0.00186437 0.00087757 0)
(-0.00183759 0.000831398 0)
(0.00191638 0.000869051 -1.23282e-16)
(0.00170718 0.000664483 0)
(-0.0018521 0.000704594 0)
(0.00172759 0.000641184 0)
(-0.00181639 0.000815845 1.18323e-17)
(-0.00183586 0.00080888 7.54733e-19)
(0.00167964 0.000571658 0)
(0.00181978 0.000692781 1.92889e-16)
(-4.1238e-05 0.00247819 0)
(0.00178808 0.000606534 0)
(-0.00186125 0.000682646 4.92536e-17)
(-0.00187304 0.00067221 -3.01483e-16)
(0.000193443 0.00110681 0)
(-0.00184273 0.000706816 -1.93417e-16)
(-0.00190644 0.000428283 9.23816e-17)
(-0.00190363 0.000752399 -4.26339e-21)
(-0.00198669 0.00067621 -2.43395e-16)
(-0.00210977 0.000749193 1.51159e-16)
(-0.0018178 0.000849913 0)
(-0.00187463 0.000650245 2.02115e-16)
(-0.0018407 0.000707202 1.00295e-16)
(0.00181017 0.000682358 0)
(-0.00182379 0.00063703 1.62545e-16)
(-0.00184691 0.000694071 -2.68738e-16)
(2.71802e-05 0.00241215 0)
(-0.00180941 0.000808922 -2.80436e-16)
(-0.00187445 0.00075635 0)
(-0.00186123 0.000693625 0)
(0.00184348 0.000685282 2.03117e-16)
(-0.0018541 0.000678542 1.01384e-16)
(0.00161172 0.000590244 2.14781e-16)
(0.00184512 0.000739263 -2.03931e-16)
(-0.00130616 0.000629259 0)
(-0.00196828 0.000663189 0)
(-0.00184347 0.000707439 0)
(0.00180574 0.000701111 -2.12708e-16)
(0.00181554 0.000765324 0)
(0.0018167 0.000696067 0)
(-0.00197569 0.000857295 -2.99362e-16)
(0.00024041 0.00244968 2.17983e-16)
(-0.00182692 0.000843295 1.92279e-16)
(0.00185832 0.000575058 -2.15588e-16)
(-1.92137e-05 0.00129027 -6.19431e-17)
(-0.00185326 0.000722785 0)
(-0.00185008 0.000780861 2.99754e-16)
(-0.00177435 0.000827763 -1.80339e-16)
(0.000171694 0.00188688 1.08286e-16)
(0.0019006 0.000408437 0)
(0.00197537 0.000528221 1.14707e-16)
(0.00174404 0.000740833 1.77801e-16)
(-0.000376801 0.000286894 2.10734e-16)
(-0.00184546 0.000688543 -9.03928e-17)
(0.00182166 0.000719048 0)
(0.00113052 0.00042368 0)
(0.00154826 0.000481962 3.86489e-16)
(-0.00184556 0.00070939 0)
(0.00191424 0.000631403 -1.07229e-16)
(-0.00196638 0.000521337 1.26093e-16)
(-0.0018569 0.000706871 9.58117e-17)
(0.00175909 0.000705929 -1.95166e-16)
(-0.00206472 0.000779213 -1.35979e-16)
(-0.00172268 0.000718465 1.84898e-16)
(-0.00202107 0.000930201 1.01007e-16)
(-0.00137938 0.000538263 -1.08943e-16)
(-0.00186202 0.000703161 0)
(-0.00185354 0.000705157 0)
(-0.000107592 0.000928327 0)
(-1.21726e-05 0.00240727 -2.50979e-16)
(-0.0019838 0.000705645 0)
(-0.00187423 0.000915565 -8.723e-17)
(0.00179383 0.000700909 3.76162e-16)
(0.001725 0.000730584 -1.11175e-16)
(0.00179512 0.000647564 3.79527e-16)
(0.00181877 0.000768441 -5.49151e-17)
(0.00180821 0.000687003 -5.54941e-21)
(-0.00183737 0.000739794 -4.91288e-17)
(-0.00184306 0.000714494 -9.63664e-17)
(-0.000150009 0.00284718 5.97386e-18)
(-0.00184914 0.000711547 -1.95296e-16)
(-0.00183725 0.000767458 -5.15029e-17)
(0.00172841 0.000749077 0)
(-0.00185259 0.000710715 -9.75866e-17)
(-0.00195227 0.000717435 -3.58918e-16)
(-0.00179387 0.000806818 -1.39394e-17)
(-0.00186283 0.000697169 0)
(-0.00187775 0.000615089 4.83495e-17)
(-0.00185271 0.000686122 -9.87664e-17)
(0.001968 0.00086728 -2.08722e-16)
(-0.0018392 0.000728442 -9.94713e-17)
(0.000243692 0.00272721 6.96544e-18)
(0.0017655 0.000645132 2.44311e-17)
(-5.26239e-05 0.00270472 -1.98858e-16)
(-0.00205313 0.000830113 2.82349e-16)
(-0.00179029 0.00060427 -3.98528e-16)
(0.00180732 0.000697708 1.03053e-16)
(-0.00205692 0.00083067 1.25935e-16)
(0.000276698 0.00141827 8.11329e-17)
(-0.00183319 0.000726329 1.97979e-16)
(0.00175416 0.000605391 1.7667e-16)
(-2.00729e-05 0.00265458 0)
(-5.16921e-05 0.00238142 -2.83923e-16)
(-0.00184043 0.00075995 -1.57227e-16)
(0.00177877 0.000607412 -5.19583e-17)
(-2.08132e-05 0.00264762 7.90267e-19)
(0.0021632 0.000859652 9.76703e-17)
(-0.00170652 0.000680309 2.95296e-16)
(-0.00185824 0.000705925 -5.09883e-17)
(-0.00187935 0.000672995 0)
(-0.00193347 0.00071665 2.2903e-16)
(0.00178366 0.000720106 -2.02295e-16)
(-0.00184331 0.000716521 -9.68009e-17)
(0.00178672 0.000701007 0)
(-4.30926e-06 0.00263278 -2.01871e-16)
(-0.00193928 0.000748571 1.20768e-16)
(0.00207198 0.00186075 -3.66323e-16)
(0.00183037 0.000695873 0)
(-1.17876e-05 0.00263329 0)
(0.00187979 0.000754734 5.9555e-21)
(7.51292e-06 0.00262587 -2.02109e-16)
(4.14295e-06 0.00263122 4.019e-16)
(-0.00183753 0.000720624 4.9849e-17)
(-0.000163554 0.00271028 1.97706e-16)
(-7.04585e-06 0.00262372 0)
(-1.70293e-05 0.00263621 2.01154e-16)
(-0.00183944 0.000717035 0)
(0.0021103 0.00119266 0)
(8.33623e-06 0.00262928 0)
(-4.12581e-06 0.00262885 -2.01437e-16)
(-0.00183279 0.000750593 0)
(-9.27194e-06 0.00263092 4.05269e-16)
(-0.00185406 0.000701777 0)
(-3.90603e-06 0.00263049 -2.02418e-16)
(-0.0018408 0.000716779 -2.93181e-16)
(-4.68589e-06 0.00262203 0)
(-0.00182252 0.000755033 9.67022e-17)
(-0.000827034 0.00301169 -4.71362e-17)
(0.00191919 0.000847714 2.50255e-16)
(0.00194513 0.000732409 0)
(5.25904e-07 0.00262756 1.45276e-20)
(-1.02489e-05 0.00263219 -1.99388e-16)
(-0.00186613 0.000625208 -8.51743e-17)
(0.00176175 0.00078753 -2.05742e-16)
(0.00161328 0.000652471 0)
(0.00179751 0.000688128 3.10261e-16)
(-1.98519e-06 0.0026293 2.01997e-16)
(-0.0018325 0.000720169 0)
(-6.46171e-05 0.00265864 2.00561e-16)
(-1.82922e-06 0.00262348 0)
(-4.55726e-06 0.00262743 -2.04878e-16)
(-0.00184758 0.000720054 0)
(0.00181154 0.000758312 1.95265e-16)
(-0.00185344 0.000708933 2.68347e-21)
(7.09088e-07 0.00262274 2.02883e-16)
(0.00183668 0.000672258 -4.19347e-16)
(0.000266132 0.00157704 0)
(-9.42037e-06 0.00263195 0)
(0.00203752 0.000941032 1.46623e-16)
(0.00178586 0.00062697 0)
(-0.000206796 0.00281988 0)
(-0.00185026 0.000700667 -3.52288e-16)
(-7.053e-05 0.00269291 0)
(-0.00184255 0.00071577 9.75565e-17)
(-0.00156312 0.00133382 -5.25371e-17)
(-0.00183405 0.000751221 2.01111e-16)
(6.43914e-07 0.00262367 -4.04621e-16)
(-0.00188506 0.000682581 5.41569e-17)
(-0.00182081 0.000754633 1.92962e-16)
(-3.24106e-06 0.00262624 0)
(-6.51502e-06 0.00262233 -1.98247e-16)
(0.00171167 0.00058724 0)
(8.14143e-07 0.00262797 -2.04204e-16)
(1.51531e-06 0.00262639 0)
(-0.000122896 0.00273077 2.01274e-16)
(1.28299e-05 0.00239039 -2.27202e-16)
(-0.00176631 0.000742437 1.17405e-16)
(-3.81261e-05 0.00266335 9.8172e-20)
(0.00130636 0.000384353 0)
(-0.00188084 0.000690835 7.99845e-17)
(-0.00177092 0.000761567 4.68851e-17)
(5.45077e-06 0.00262123 4.0501e-16)
(-1.04322e-05 0.00263089 2.01599e-16)
(-0.00188302 0.000716033 -4.65995e-16)
(1.65885e-06 0.00262464 2.02681e-16)
(0.00167511 0.000545598 6.76709e-21)
(-1.33312e-05 0.00262578 2.006e-16)
(-0.0018585 0.000705892 0)
(-0.00183226 0.000735025 5.12176e-17)
(-1.45958e-06 0.00262669 -1.45946e-20)
(0.00178534 0.000868372 2.10079e-16)
(-0.00184981 0.000720303 -1.0284e-16)
(-0.00182373 0.00075051 -8.98989e-17)
(-6.48924e-06 0.00262991 -2.01522e-16)
(0.00179697 0.000704003 3.51591e-18)
(-4.81865e-07 0.00262777 -1.45986e-20)
(-0.00186225 0.000703904 4.80861e-17)
(8.50749e-06 0.00262313 0)
(-0.00185294 0.000700727 0)
(-1.52149e-05 0.00262989 -2.01464e-16)
(1.32212e-06 0.00262639 2.02263e-16)
(0.00179759 0.000744791 -2.45277e-17)
(-0.00189091 0.000645163 2.19718e-16)
(-1.36932e-05 0.00262613 1.99769e-16)
(3.29927e-06 0.00262286 0)
(-0.00183682 0.000744976 0)
(-0.00182801 0.000751831 1.53401e-16)
(-0.00188556 0.00060461 0)
(-9.38851e-05 0.00162847 -1.08308e-16)
(-5.04393e-07 0.00262752 2.02708e-16)
(-0.00182379 0.000749149 -1.45371e-16)
(-0.00184037 0.000714924 0)
(-0.00183052 0.000697397 5.30123e-17)
(-2.472e-05 0.00263529 1.97005e-16)
(1.70003e-07 0.00262375 -1.46722e-20)
(-0.00184335 0.000705057 -5.14123e-17)
(0.00106786 0.000128621 -2.18992e-16)
(-2.33746e-05 0.002641 -2.00423e-16)
(-7.40809e-06 0.00263044 2.02102e-16)
(3.76929e-06 0.00262386 2.02979e-16)
(-2.40321e-07 0.00263201 -2.00153e-16)
(0.00219206 0.00110987 -1.92045e-16)
(-1.54411e-05 0.00262622 -2.01107e-16)
(-0.00185609 0.000698452 0)
(-0.00180256 0.000651424 0)
(0.00173255 0.000660513 0)
(-4.01156e-06 0.00262356 -2.03568e-16)
(-0.00182138 0.000754349 2.4814e-16)
(0.00177799 0.000662928 -1.57149e-16)
(-0.00176542 0.000714306 2.71351e-16)
(-0.00184306 0.00071487 -1.96915e-16)
(-0.00184575 0.000713044 -1.01262e-16)
(-0.00198914 0.000936523 -1.00453e-16)
(-7.39588e-06 0.00262547 -4.05788e-16)
(7.16651e-06 0.00262365 8.46294e-20)
(-0.00186063 0.000762765 -5.80041e-17)
(-0.00184683 0.000741672 4.59955e-17)
(-0.0018462 0.000717962 -5.05263e-17)
(1.04883e-05 0.00262685 -2.02614e-16)
(2.26243e-06 0.00262361 4.10221e-16)
(-1.27691e-05 0.00262643 -2.02959e-16)
(2.26463e-06 0.00262643 -7.95359e-19)
(-0.00184102 0.000730868 4.91291e-17)
(-8.88904e-06 0.00262498 0)
(1.24886e-05 0.00262554 -2.03782e-16)
(8.58414e-06 0.0026227 2.02748e-16)
(1.07676e-05 0.00262698 3.50539e-20)
(-0.00184883 0.00069314 1.02069e-16)
(-1.48263e-05 0.00264105 0)
(-0.00184913 0.000703232 -2.00614e-16)
(-0.0018845 0.000683646 0)
(0.00180882 0.000692971 -2.22457e-16)
(-9.90337e-07 0.00262529 -1.57903e-18)
(0.00173744 0.000690915 1.97901e-16)
(1.64567e-06 0.00262599 -1.45324e-20)
(-0.000161208 0.00269453 0)
(-0.000107062 0.00266009 -1.99269e-16)
(-0.00184861 0.000705822 0)
(-0.00186399 0.00070328 -9.86553e-17)
(1.78583e-05 0.00262255 0)
(-0.00183359 0.000711389 -2.14072e-16)
(-0.00184389 0.000722903 -1.06353e-16)
(0.00179947 0.000715213 2.13739e-16)
(1.01613e-06 0.00262367 -2.03082e-16)
(-1.48857e-05 0.00262652 -2.03158e-16)
(-0.00185237 0.000739778 5.55532e-17)
(-2.81417e-06 0.00262631 -2.00305e-16)
(-0.00182627 0.000694125 3.11583e-16)
(-1.20077e-05 0.00262448 -2.02288e-16)
(3.76014e-06 0.00262591 -1.45601e-20)
(-0.0018245 0.000767714 -2.36557e-16)
(-1.62606e-05 0.00262595 2.00627e-16)
(0.00181233 0.000685638 0)
(-0.00184131 0.000720057 -5.02507e-17)
(-9.72745e-07 0.00262472 3.18888e-18)
(-0.0018522 0.000692829 1.00774e-16)
(-4.35956e-07 0.00262406 -1.60071e-18)
(-0.00184186 0.000707388 5.046e-17)
(-0.00173808 0.000650192 0)
(6.87881e-06 0.00262589 -1.46313e-20)
(-0.00200957 0.000846789 3.00914e-16)
(1.58102e-06 0.00262726 2.04468e-16)
(0.00166212 0.000850699 -5.8777e-17)
(-0.0017523 0.000786991 1.95204e-16)
(-5.75548e-07 0.00262562 2.04614e-16)
(0.00134267 0.000527279 2.15025e-16)
(-3.43175e-06 0.00262566 2.03319e-16)
(2.01414e-06 0.00262632 3.17267e-18)
(0.0015394 0.000562037 2.27231e-16)
(0.00165168 0.000576511 -2.12539e-16)
(0.00187766 0.000745901 0)
(-0.00195991 0.000798662 0)
(-1.49796e-05 0.00262584 -1.59106e-18)
(0.00170952 0.00064724 2.79969e-16)
(-1.44507e-05 0.00262453 -1.57971e-18)
(-0.00184591 0.000714302 -9.8242e-17)
(0.0016746 0.000578936 0)
(1.36388e-05 0.00262465 -4.05551e-16)
(2.2242e-06 0.00262506 -4.08066e-16)
(-0.00183591 0.000740038 0)
(-0.00184834 0.00069186 0)
(1.52684e-06 0.00262709 -4.05517e-16)
(-5.25542e-05 0.00265214 0)
(-0.00183661 0.000755346 -1.95478e-16)
(-3.53232e-05 0.00264017 -4.00511e-16)
(-0.00167775 0.000604353 0)
(0.00189323 0.000615916 5.24844e-17)
(1.98602e-07 0.00262235 -1.60738e-18)
(5.95298e-06 0.00262793 2.04309e-16)
(0.00143643 0.000894867 -7.03673e-18)
(6.98162e-07 0.00262503 -2.04791e-16)
(-0.00185893 0.000684304 1.57436e-16)
(-0.0019457 0.000903259 1.38981e-16)
(-1.60982e-05 0.00262542 2.01866e-16)
(-0.00185239 0.000692251 1.45747e-16)
(-2.86394e-06 0.00262625 2.04812e-16)
(-1.49357e-05 0.00262485 -2.02604e-16)
(-1.68722e-05 0.00262503 -2.01906e-16)
(-0.00182877 0.000743646 0)
(-0.00184987 0.000695006 -4.9868e-17)
(-1.85573e-06 0.00262456 -7.98777e-19)
(1.54069e-05 0.00262555 0)
(-0.00182628 0.000740697 1.98687e-16)
(-0.00184139 0.000695047 0)
(2.37603e-06 0.00262412 -2.034e-16)
(-1.26624e-05 0.00263357 3.16229e-18)
(0.00179629 0.000698032 -2.14734e-16)
(2.3613e-06 0.00262541 -4.1085e-16)
(-0.00198312 0.000783985 3.41573e-16)
(-9.61301e-07 0.00262523 0)
(-8.6442e-07 0.00262672 2.02759e-16)
(-5.04333e-07 0.00262553 0)
(-1.27503e-07 0.00262602 2.02819e-16)
(1.91216e-06 0.00262483 -2.02306e-16)
(0.00155061 0.000600537 1.21376e-16)
(7.04168e-07 0.00262438 2.02448e-16)
(1.20736e-06 0.00263009 -1.46567e-20)
(-3.25626e-08 0.00262519 2.04801e-16)
(-1.74954e-05 0.00262554 4.04645e-16)
(-0.00185103 0.000706991 0)
(-0.00184899 0.000713251 -5.25273e-17)
(-1.52032e-05 0.00262519 0)
(-3.46909e-07 0.00262533 0)
(-1.75384e-06 0.00262428 -2.06611e-16)
(1.54595e-05 0.00262635 2.03098e-16)
(1.27661e-05 0.00262656 2.03863e-16)
(-0.00184544 0.000717499 2.57695e-16)
(1.37479e-05 0.00262516 2.03294e-16)
(-1.0142e-06 0.00262645 -2.04792e-16)
(-2.51655e-06 0.00262541 0)
(-6.87692e-07 0.00262521 -1.47055e-20)
(-0.00184937 0.000712688 1.00376e-16)
(1.52877e-05 0.00262547 0)
(1.44106e-05 0.00262469 2.03436e-16)
(-6.15171e-06 0.00263032 -2.05256e-16)
(-0.00185499 0.000692034 0)
(-2.54607e-08 0.00262527 0)
(0.00181328 0.000697575 -2.1323e-16)
(-3.26714e-07 0.00262701 1.59878e-18)
(-2.55588e-07 0.00262758 -3.98537e-19)
(-1.25483e-05 0.00262305 -7.92064e-19)
(-1.6906e-05 0.00262482 1.4601e-20)
(-1.36653e-05 0.00262387 7.92711e-19)
(-0.0018396 0.000793623 -1.24095e-16)
(-1.63029e-05 0.00262367 2.0361e-16)
(8.75924e-06 0.00262415 0)
(-1.59698e-05 0.002624 2.02162e-16)
(-1.6162e-05 0.0026245 -2.02508e-16)
(-1.70375e-05 0.00262557 -2.03448e-16)
(-0.0022304 0.00182416 -3.08461e-16)
(-0.00042526 0.000526857 -3.84298e-16)
(1.57374e-05 0.00262585 -2.03713e-16)
(-1.57393e-06 0.00262608 -2.03071e-16)
(1.83501e-07 0.00262668 -2.03025e-16)
(1.41274e-05 0.00262464 2.03497e-16)
(-0.00185851 0.000701076 -2.02473e-16)
(-1.81225e-05 0.00262421 2.02139e-16)
(-1.51303e-06 0.00262569 -2.0269e-16)
(-1.19658e-05 0.0026307 -4.03165e-16)
(-1.38266e-06 0.00262483 -1.60329e-18)
(1.68097e-05 0.0026247 2.02728e-16)
(0.00179924 0.000690239 2.13264e-16)
(-5.61437e-06 0.00262647 -2.02728e-16)
(1.03127e-06 0.00262519 -1.45894e-20)
(0.0019167 0.000791903 -2.63005e-16)
(-5.62831e-07 0.0026251 0)
(-1.18591e-06 0.00262518 0)
(-1.80125e-05 0.00262479 -4.06252e-16)
(-0.00184913 0.000709681 1.00716e-16)
(3.35173e-07 0.00262366 -4.00491e-19)
(-2.09057e-05 0.00262566 2.12277e-19)
(0.00181143 0.000669457 1.41756e-17)
(-1.92233e-05 0.00262685 2.03075e-16)
(1.90355e-05 0.00262576 2.03048e-16)
(1.74147e-05 0.00262536 -2.029e-16)
(4.38028e-06 0.00262506 -2.03471e-16)
(-2.04279e-05 0.0026259 1.45941e-20)
(-0.0019224 0.000687124 -2.15474e-16)
(-0.00158641 0.000617516 2.65478e-16)
(-1.76048e-06 0.00262269 -1.46741e-20)
(-1.13588e-06 0.00262595 -2.02589e-16)
(-0.00183248 0.000743865 5.11236e-17)
(1.66576e-06 0.00262431 -1.47058e-20)
(-1.88377e-05 0.00262398 8.05146e-19)
(1.89263e-05 0.0026248 -4.06041e-16)
(8.71228e-06 0.00262235 2.03833e-16)
(1.6091e-05 0.00262433 -2.03831e-16)
(1.58204e-05 0.0026249 -2.03825e-16)
(1.8897e-05 0.00262515 2.03125e-16)
(1.5781e-05 0.00262444 1.98678e-19)
(1.87553e-05 0.00262521 0)
(0.00181323 0.000685601 0)
(-1.52866e-05 0.00262536 2.04487e-16)
(-1.24143e-06 0.0026281 0)
(3.43782e-06 0.00262704 2.03736e-16)
(1.87961e-05 0.00262513 0)
(1.87171e-05 0.00262534 2.03193e-16)
(1.89587e-05 0.00262495 -9.91909e-20)
(1.96193e-06 0.00262725 1.99363e-16)
(1.70372e-05 0.00262624 0)
(-4.97172e-06 0.0026278 0)
(-1.58938e-05 0.00262734 -2.04708e-16)
(-0.00184547 0.000712315 -2.47668e-21)
(1.67375e-05 0.00262504 0)
(-3.86703e-05 0.00267004 0)
(1.64429e-05 0.00262508 0)
(-0.00180182 0.000687587 1.5717e-16)
(1.29154e-06 0.00262623 -2.02841e-16)
(-1.1842e-05 0.0026308 2.0468e-16)
(1.71941e-05 0.00262657 -9.94045e-20)
(-0.00181147 0.000755109 5.56765e-17)
(-0.00183497 0.000745761 -5.08319e-17)
(1.50332e-05 0.00262613 -2.03819e-16)
(-4.5488e-06 0.00262103 0)
(-6.30066e-07 0.00262966 -2.039e-16)
(1.52494e-05 0.0026263 1.4646e-20)
(1.88949e-05 0.00262484 -2.03659e-16)
(-1.74792e-06 0.00261906 4.0504e-16)
(0.00174379 0.000604722 -3.65594e-16)
(0.00180657 0.000698049 -4.30918e-16)
(-2.65767e-06 0.00262606 4.07249e-16)
(0.00178514 0.00070462 0)
(1.4887e-05 0.00262628 0)
(1.9203e-05 0.0026244 -3.96996e-19)
(-0.00187748 0.000742828 -1.84022e-16)
(-0.00184224 0.000752724 1.05905e-16)
(1.17384e-06 0.00262418 -1.00204e-19)
(1.50317e-05 0.0026265 2.03871e-16)
(1.59441e-06 0.00262521 -2.03129e-16)
(-0.00168457 0.00160921 1.02776e-16)
(1.42364e-05 0.00262621 7.96845e-19)
(-1.84228e-05 0.00262675 2.03301e-16)
(-1.52213e-06 0.00262873 2.04071e-16)
(-0.00210315 0.00107636 -2.01499e-16)
(1.47048e-05 0.00262702 0)
(-1.07259e-06 0.00262551 4.01573e-19)
(-4.03905e-06 0.00262793 -2.03105e-16)
(-0.00185004 0.000701453 0)
(0.00185672 0.000507979 3.85785e-16)
(-0.00182064 0.000754674 5.36679e-17)
(1.40686e-05 0.00262646 -7.96976e-19)
(1.97973e-06 0.00262607 -2.03829e-16)
(-1.63959e-05 0.00262367 -2.03656e-16)
(-0.00184189 0.000739501 3.04096e-16)
(1.41115e-05 0.00262735 -2.04089e-16)
(-2.14988e-05 0.00262466 7.93019e-19)
(1.12814e-06 0.00262413 2.00591e-19)
(1.75094e-05 0.00262474 0)
(-5.00335e-07 0.00262928 0)
(1.77466e-05 0.00262455 0)
(1.85829e-06 0.00262604 0)
(-0.00184493 0.000701093 -5.05806e-17)
(-1.93274e-05 0.00262372 0)
(-1.28427e-06 0.00262536 0)
(0.00195102 0.000908 1.5751e-16)
(1.19848e-06 0.00262613 0)
(-0.000105816 0.00273392 0)
(-5.14078e-07 0.00262915 4.08009e-16)
(9.49485e-07 0.00262415 0)
(0.00179583 0.000661447 -4.81146e-17)
(0.00180745 0.000701782 0)
(0.00163391 0.000793504 1.05924e-16)
(0.00177408 0.000642648 -2.06199e-16)
(2.05259e-06 0.00262571 -4.07223e-16)
(-0.0016725 0.000722891 0)
(8.24881e-07 0.00262618 -1.99181e-19)
(-0.00183244 0.000740899 -9.91582e-17)
(1.96971e-05 0.00262489 0)
(0.00089681 0.00102554 0)
(3.28484e-07 0.00262545 -4.02031e-19)
(1.6639e-06 0.00263196 -1.26934e-17)
(0.000675 0.00161609 -7.05265e-18)
(1.75157e-05 0.00262332 0)
(2.10781e-06 0.00262535 0)
(-0.0018407 0.000723692 0)
(-8.59493e-07 0.00262591 4.0641e-16)
(-7.62071e-07 0.00262656 0)
(0.00180347 0.000691956 3.89325e-21)
(0.000511347 0.00151433 0)
(-8.95892e-08 0.00262564 4.14444e-19)
(-2.19986e-07 0.00262692 -2.04145e-16)
(1.32962e-06 0.00262503 -2.03126e-16)
(1.10264e-06 0.00262431 -4.02705e-19)
(4.85193e-07 0.00262462 0)
(1.01136e-06 0.00262761 1.47219e-20)