/*--------------------------------*- C++ -*----------------------------------*\
  =========                 |
  \\      /  F ield         | OpenFOAM: The Open Source CFD Toolbox
   \\    /   O peration     | Website:  https://openfoam.org
    \\  /    A nd           | Version:  12
     \\/     M anipulation  |
\*---------------------------------------------------------------------------*/
FoamFile
{
    format      ascii;
    class       volVectorField;
    location    "0.1";
    object      U;
}
// * * * * * * * * * * * * * * * * * * * * * * * * * * * * * * * * * * * * * //

dimensions      [0 1 -1 0 0 0 0];

internalField   nonuniform List<vector> 
4428
(
(0.000760821 0.000289122 1.01429e-16)
(-0.000769956 0.000318794 -9.0383e-17)
(-0.00070086 0.000321377 0)
(-0.000725297 0.000307903 0)
(0.000696148 0.000581748 8.16395e-17)
(0.000733319 0.000601759 3.26906e-21)
(-0.00069483 0.000407286 0)
(-0.000777272 0.000276395 1.46411e-16)
(0.000754008 0.000312832 -2.49066e-16)
(0.000780732 0.000223022 9.95379e-17)
(-0.000715079 0.000246062 -1.7333e-16)
(0.000709299 0.000310195 -1.76863e-16)
(-0.00080413 0.000163692 -2.03659e-16)
(-0.000244615 0.000892081 -9.58158e-17)
(0.000749511 0.0002904 0)
(0.000688553 0.000249826 0)
(0.00078214 0.000283067 0)
(-0.000715263 0.000245741 0)
(-0.000808149 0.000162513 0)
(0.000759361 0.000288278 0)
(0.000268187 0.000220791 -4.48035e-16)
(-0.000767418 0.000293518 -1.77702e-16)
(-0.000722647 0.000311458 0)
(-0.000796229 0.000265098 0)
(-0.0007637 0.000291801 2.26617e-17)
(-0.000723499 0.000263368 0)
(-0.000733772 0.000395526 1.03357e-16)
(0.000741623 0.000231258 2.07804e-16)
(0.000695715 0.000344211 0)
(-0.000816917 0.000179514 0)
(0.000760512 0.000174393 0)
(-0.00077589 0.000290972 -1.84204e-16)
(0.000769545 0.000245203 -9.00195e-17)
(-0.000794013 0.000389945 -2.77423e-16)
(-1.44956e-05 0.00104021 4.69773e-17)
(-0.000772738 0.000303046 1.99862e-16)
(-0.000762325 0.00038917 -4.41337e-21)
(0.000703666 0.000948447 1.27044e-17)
(-0.000102847 0.000902585 -2.62234e-17)
(-0.000726682 0.000320951 0)
(0.000770216 0.000277026 0)
(0.00068616 0.000214378 0)
(0.000725502 0.000245582 9.24318e-17)
(-0.000793981 0.000251145 1.66058e-16)
(0.000758319 0.000231266 0)
(0.000616729 0.000233306 0)
(0.000721355 0.000697207 -9.97839e-17)
(-0.000721783 0.00035621 2.03144e-16)
(-0.000737261 0.000316813 2.2446e-16)
(-0.000759373 0.000336987 0)
(0.000761516 0.000323329 0)
(0.000671779 0.000334496 1.88123e-16)
(0.00078255 0.000225752 -9.13185e-17)
(0.000681437 0.000344991 0)
(0.000701546 0.000302045 -1.39784e-17)
(0.000465898 0.000216574 0)
(0.000685282 0.000330133 -9.29929e-17)
(-0.000734592 0.00023354 0)
(0.000633775 0.000681365 1.82961e-16)
(0.000746538 0.000251286 -1.82011e-16)
(0.000781824 0.000300381 1.67097e-16)
(-0.000784408 0.000247832 0)
(0.000678529 0.000267205 2.79952e-16)
(-0.00077448 0.000289894 9.26982e-17)
(-0.000771045 0.000303677 0)
(0.000710474 0.000311816 0)
(-0.000789587 0.000254871 1.73158e-16)
(-0.000730613 0.000313571 -1.8582e-16)
(0.000736095 0.000260197 -1.82185e-16)
(-0.000756061 0.000328448 -3.61909e-16)
(-0.000792749 0.000243801 -9.16132e-17)
(0.000741045 0.000339641 2.12653e-16)
(0.000811463 0.000360745 5.80506e-17)
(-0.000715786 0.000300781 4.46954e-17)
(0.000756736 0.000266492 1.9665e-16)
(-1.34588e-05 0.0010229 -1.83295e-16)
(0.000783967 0.000361477 0)
(0.000806815 0.000322211 0)
(-0.000704127 0.000410964 -1.18144e-16)
(0.000539888 0.000250892 -4.28798e-21)
(0.000687524 0.000354552 -1.97539e-16)
(-0.00078494 0.000246142 0)
(0.000723189 0.000350032 -1.81063e-16)
(0.000736468 0.000311823 -1.72066e-16)
(0.000780598 0.000280992 3.18305e-16)
(-0.000848237 0.000257104 -2.5469e-16)
(-0.000103601 0.00116231 1.15144e-16)
(-0.000784537 0.000287613 0)
(-0.000772404 0.00029355 -9.60342e-17)
(0.000705165 0.000309908 2.04741e-17)
(0.000758261 0.000224609 8.3665e-17)
(0.000776891 0.000278164 -1.59368e-16)
(-0.000784367 0.000311762 0)
(-0.000784673 0.000293177 0)
(-0.000771641 0.000304268 9.81694e-17)
(-0.000747233 0.000316938 1.6712e-16)
(0.000774817 0.000306068 1.13531e-16)
(-0.000794866 0.000302404 -1.19903e-16)
(-0.000793792 0.000241225 9.28707e-17)
(0.000716874 0.000395738 0)
(0.000716235 0.000329867 -2.25141e-17)
(0.000740505 0.000291645 0)
(0.000759712 0.000266428 0)
(0.000685994 0.000259283 -1.87987e-16)
(0.000680045 0.000324213 -1.03702e-16)
(0.000697067 0.000335828 2.48602e-21)
(0.000745875 0.000307083 1.90326e-16)
(-0.000764474 0.000370213 -1.22456e-16)
(0.000780359 0.000304006 -1.20823e-16)
(0.000720668 0.000364598 0)
(0.000743468 0.000243708 1.64696e-16)
(0.000746063 0.000286006 -1.94804e-16)
(-0.000716839 0.000296572 2.63119e-21)
(0.00070684 0.000269361 1.65965e-16)
(-0.000434733 0.000272694 1.15542e-16)
(-0.000793008 0.000237932 1.80233e-16)
(-0.000170202 0.00099791 0)
(0.000309139 0.00024205 5.24747e-17)
(-0.000801058 0.000261562 8.87653e-17)
(0.000803817 0.000316848 -1.1286e-16)
(0.000805347 0.000312243 2.11532e-16)
(-0.000704755 0.000414297 2.41278e-16)
(0.000515997 0.000844441 -1.96896e-16)
(0.000763695 0.000248413 -3.0362e-16)
(6.48397e-06 0.00104067 1.7876e-16)
(-0.000775383 0.000290142 0)
(-0.000786858 0.000260191 -2.72258e-16)
(0.00071495 0.000303745 9.95091e-17)
(-0.000771341 0.000315446 -3.04101e-16)
(-0.000773918 0.000301987 9.6677e-17)
(-0.000792384 0.000246076 -1.87133e-16)
(-0.00075787 0.000313474 0)
(0.000768437 0.000307815 2.24127e-16)
(0.000731629 0.000278092 0)
(0.000742891 0.000289325 0)
(0.000794255 0.000342895 6.53781e-21)
(0.000794389 0.000332424 -2.43671e-16)
(-0.000791514 0.000241161 -1.82389e-16)
(-0.000775599 0.000297523 -1.83551e-16)
(-0.000767539 0.000311132 1.43949e-16)
(-0.000767857 0.000374675 -1.23707e-16)
(-0.000775443 0.000280255 -9.67487e-17)
(0.000731506 0.000294316 0)
(0.000736924 0.000297463 -1.9943e-16)
(0.000769788 0.00028753 0)
(0.000728193 0.000280691 9.67648e-17)
(0.000787722 0.000362 1.28475e-16)
(-1.83424e-05 0.000737837 -9.1395e-17)
(0.000818074 0.000215068 2.88889e-16)
(-9.60192e-06 0.00103764 4.5441e-17)
(-0.00077484 0.000290384 -1.99514e-16)
(-0.00050209 0.000226773 1.00284e-16)
(0.000733039 0.000229976 -9.63853e-21)
(0.000818396 0.000278872 -2.48624e-16)
(-0.000773372 0.000301721 2.91596e-16)
(0.000784073 0.000291061 0)
(0.000715579 0.000479759 -1.77128e-16)
(0.000763494 0.000224325 -9.48486e-17)
(0.000758226 0.000269575 -1.78768e-16)
(-0.000781874 0.000250879 -9.12347e-17)
(-0.000769789 0.000320556 1.95448e-16)
(0.000749077 0.000296808 0)
(0.000811483 0.000247915 0)
(-0.000271189 0.000121466 -2.17178e-16)
(-0.000815045 0.00034702 1.19565e-16)
(-0.000792354 0.000243926 0)
(-0.000771809 0.000282652 0)
(0.000810303 0.000257274 0)
(-0.000772126 0.000296521 1.93324e-21)
(-0.000775667 0.000335194 9.3679e-17)
(-0.000790176 0.000256082 -9.38002e-17)
(0.000773257 0.000308108 3.99739e-21)
(-0.000777074 0.00029155 0)
(0.000694603 0.00029487 0)
(0.000712347 0.000926153 -1.16375e-17)
(-0.000822802 0.000350932 2.29079e-16)
(0.000780324 0.000279874 0)
(0.000676969 0.000349326 2.14591e-16)
(0.00073286 0.00031519 2.17941e-16)
(-0.000821845 0.000344834 1.1432e-16)
(-0.000105474 0.00104068 -7.01179e-21)
(-0.000748098 0.000310617 1.75079e-16)
(-0.000780093 0.000272932 1.91952e-16)
(0.000717319 0.00027273 0)
(-0.000774283 0.000290782 3.00574e-16)
(-0.000766394 0.000360939 -9.52177e-17)
(0.000766047 0.000297673 0)
(-0.000772218 0.000301008 0)
(0.00066137 0.000279008 3.43573e-16)
(0.00076282 0.000340975 0)
(0.00074981 0.000272728 0)
(0.000781805 0.000382144 2.58472e-17)
(0.000760871 0.00026837 0)
(0.000765438 0.000330284 -3.67875e-16)
(-0.000747277 0.000359918 0)
(-0.000745421 0.000356742 -1.80869e-16)
(-0.000744819 0.000355758 2.70926e-16)
(-0.000737141 0.000349046 8.88781e-17)
(0.00105262 0.000610039 1.48759e-16)
(-0.000241611 0.00110183 0)
(0.000763133 0.000347051 2.13765e-16)
(-0.000779571 0.000282129 -1.94082e-16)
(0.000608916 0.000325204 -1.90309e-16)
(-0.000784837 0.000251806 0)
(0.000693792 0.000271781 -1.76633e-16)
(0.000754707 0.000265098 -2.98061e-18)
(-0.000770553 0.000297685 9.32589e-17)
(-0.000171529 0.00119655 -1.77909e-16)
(-0.000385129 0.00103669 1.11842e-17)
(0.000511769 0.000267525 0)
(0.000773796 0.000334654 0)
(0.000845611 0.000294036 0)
(0.000768513 0.000322855 5.93593e-21)
(-0.000778278 0.000273553 0)
(0.000752892 0.000281215 0)
(-0.000753935 0.00035235 -1.4009e-16)
(-0.000746634 0.000347728 1.83786e-16)
(2.53168e-05 0.00103858 -1.84694e-16)
(-0.00072919 0.000283977 1.993e-16)
(-0.000742081 0.000353921 -4.53597e-17)
(0.00076743 0.00032026 1.95366e-16)
(0.000817231 0.00028243 -6.15123e-17)
(-0.000767411 0.000299289 1.85471e-16)
(0.00079462 0.00034915 0)
(-0.000747655 0.000355468 0)
(-0.000773874 0.000291434 0)
(-0.00077983 0.000299093 -1.08727e-16)
(0.000749118 0.000268835 -1.93045e-16)
(0.000714197 0.000301812 3.77963e-21)
(-0.0007716 0.000300708 0)
(-0.000774277 0.000281453 9.8325e-17)
(-0.000477425 0.000947884 0)
(0.00065273 0.000408251 0)
(0.00012068 0.0011513 8.61758e-17)
(0.000727 0.000296502 5.74632e-17)
(-0.000753174 0.000343491 0)
(-0.000750008 0.000350359 0)
(-0.000750165 0.000347696 1.88219e-16)
(-0.000752724 0.000346029 -1.86175e-16)
(-0.000783305 0.00025657 2.97772e-16)
(-7.69322e-05 0.000200258 5.13889e-17)
(-0.000802197 0.000312236 -5.9007e-17)
(-0.000736482 0.000349405 6.23709e-17)
(0.000751341 0.000298866 2.23737e-17)
(-0.000776921 0.000275967 -9.62592e-17)
(-0.000211774 0.000780633 -1.01157e-16)
(-0.000767773 0.000368206 1.89328e-16)
(-0.000779225 0.000278285 1.92818e-16)
(0.000894349 0.000597255 0)
(-8.66725e-05 0.000780264 0)
(-0.000809789 0.000333432 6.07726e-21)
(0.000734729 0.000292211 2.04397e-16)
(0.000769743 0.000321951 -1.05651e-16)
(-0.000747541 0.000347238 1.8189e-16)
(0.000665507 0.000246481 -1.31319e-16)
(0.000134728 9.0139e-05 1.07918e-16)
(-0.000750006 0.000347972 -3.65591e-16)
(7.65661e-06 0.00103135 0)
(-0.000885848 0.000313707 -3.66793e-17)
(-0.000755983 0.000344911 -2.11764e-16)
(-0.0007537 0.000345815 1.90021e-16)
(-0.000268619 0.000134944 2.17219e-16)
(-0.000773667 0.000283252 0)
(0.000823837 0.000169805 1.23014e-16)
(-0.000749851 0.000345412 -9.37857e-17)
(-0.00076886 0.000298253 -1.00074e-16)
(0.000782471 0.000283414 0)
(-0.000750763 0.00034689 0)
(-0.000522157 0.00114021 1.37278e-16)
(-0.000797726 0.000269981 -1.83739e-16)
(0.000751939 0.000259037 0)
(0.000783319 0.000365741 2.37182e-16)
(0.000749436 0.000298761 1.23126e-17)
(-0.000153064 0.000839263 2.58444e-16)
(-0.00077432 0.00029271 0)
(0.000731332 0.000311878 1.98134e-16)
(0.000758204 0.000286538 -2.63565e-16)
(-0.000775283 0.00028052 1.94299e-16)
(0.000805951 0.0003878 0)
(0.000129134 8.72611e-05 -1.10466e-16)
(-0.000846247 0.000353281 -2.51414e-22)
(-0.000133221 0.00106024 9.63418e-17)
(0.000751716 0.000284179 0)
(-0.000781676 0.000260487 -2.99179e-16)
(0.000698027 0.000395578 3.9335e-16)
(0.000684601 0.000396139 -9.1245e-17)
(0.000758901 0.000297835 -1.32952e-17)
(0.000761899 0.000258514 -1.26249e-16)
(0.000762373 0.000301824 1.94439e-16)
(0.000764997 0.00028297 0)
(-0.000849787 0.000253822 1.4358e-16)
(-0.000802021 0.000261795 -1.87093e-16)
(-0.000757122 0.0003386 -7.47204e-19)
(0.000718969 0.000349656 0)
(0.000705845 0.0003115 2.14674e-16)
(0.000244941 8.51498e-05 2.31987e-16)
(-0.000769373 0.000286735 1.95536e-16)
(-0.000748498 0.000344619 2.07965e-16)
(-0.00076667 0.000349846 0)
(-0.00047284 0.0011124 1.96765e-16)
(-0.000777229 0.000282285 5.9065e-21)
(0.000718795 0.00027127 1.14695e-16)
(-0.000772947 0.000284633 0)
(-0.000754025 0.000344423 -1.18784e-17)
(-0.000753087 0.000346722 0)
(-0.000752318 0.000346573 -1.85914e-16)
(-0.000774618 0.000302197 0)
(-0.000108607 0.00114845 -1.19594e-16)
(0.000504641 0.00028575 -3.44561e-16)
(0.000744509 0.000385106 1.25598e-16)
(-0.000774911 0.000282925 9.79721e-17)
(0.000740267 0.000292756 0)
(0.000791284 0.000377622 -1.26568e-16)
(-0.000130213 0.0011277 -1.90456e-16)
(0.000464569 0.000156223 -2.23908e-16)
(0.000750091 0.000307689 0)
(0.000765497 0.000340127 0)
(0.000745046 0.000316826 -1.87618e-16)
(-0.000780208 0.000264931 0)
(-0.000769543 0.000293798 1.96572e-16)
(-0.000191615 0.00124204 -6.17613e-18)
(-0.000816438 0.000355327 -1.01492e-16)
(-0.000713427 0.00027436 6.10885e-17)
(0.000737027 0.000285712 3.89327e-16)
(-0.000548286 0.00168806 -1.4608e-16)
(0.00126035 0.000496796 -1.97879e-16)
(0.000715016 0.000330539 -2.12587e-16)
(-0.000764343 0.000297175 9.64316e-17)
(-0.000765436 0.000357985 -1.21775e-17)
(-0.000747263 0.000349621 -1.89497e-16)
(0.000747915 0.000285499 2.09792e-16)
(-0.000769528 0.000287982 0)
(-0.000773 0.000285313 9.90859e-17)
(-0.000885049 0.000311174 1.50961e-16)
(-0.000775558 0.000369539 0)
(-0.000763933 0.00035145 0)
(0.000789103 0.000369226 -1.23285e-16)
(0.000710336 0.000272691 0)
(-0.000773707 0.000291119 0)
(0.00072167 0.000272927 0)
(-0.000753358 0.00034533 1.18325e-17)
(-0.000762488 0.00034104 7.54745e-19)
(0.000700254 0.000228426 0)
(0.000756462 0.000281786 1.92892e-16)
(-7.73954e-06 0.00103897 0)
(0.000755529 0.000247062 0)
(-0.000776154 0.00028523 4.92544e-17)
(-0.000780163 0.000278519 -3.01487e-16)
(7.62465e-05 0.000458047 0)
(-0.000767256 0.000295963 -1.9342e-16)
(-0.00080769 0.000178442 9.23831e-17)
(-0.000815989 0.000315824 -4.37834e-21)
(-0.000823632 0.000276109 -2.434e-16)
(-0.000885744 0.000304694 1.51163e-16)
(-0.000755613 0.000359564 0)
(-0.000781192 0.000269631 2.02118e-16)
(-0.000766861 0.000294633 1.00296e-16)
(0.000754463 0.000285198 0)
(-0.000759687 0.00026079 1.62547e-16)
(-0.000770638 0.00028685 -2.68743e-16)
(-2.59774e-06 0.00100734 0)
(-0.00074969 0.000342547 -2.8044e-16)
(-0.000773282 0.000321821 0)
(-0.000775552 0.000288509 0)
(0.000766908 0.000280969 2.0312e-16)
(-0.000773017 0.000282891 1.01386e-16)
(0.000673628 0.000242042 2.14784e-16)
(0.000763729 0.000308617 -2.03934e-16)
(-0.000542229 0.000264206 0)
(-0.000819246 0.000274888 0)
(-0.000767795 0.000295994 0)
(0.000751363 0.000292515 -2.12712e-16)
(0.00076782 0.000333868 0)
(0.00075935 0.000287513 0)
(-0.00082295 0.000356879 -2.99367e-16)
(0.000118972 0.00101392 2.17989e-16)
(-0.000758713 0.000355357 1.92281e-16)
(0.000788689 0.000241637 -2.15592e-16)
(-1.4696e-05 0.000537762 -6.19437e-17)
(-0.000772076 0.000301119 0)
(-0.00076915 0.000327618 2.99759e-16)
(-0.000736641 0.000349981 -1.80342e-16)
(8.24775e-05 0.000789218 1.08288e-16)
(0.00080587 0.000159248 0)
(0.00083015 0.000212034 1.14709e-16)
(0.000725673 0.000309671 1.77803e-16)
(-0.000153968 0.000116744 2.10734e-16)
(-0.000770459 0.000284783 -9.03942e-17)
(0.00075825 0.000300504 0)
(0.000470827 0.000177702 0)
(0.000652514 0.000198356 3.86494e-16)
(-0.000768731 0.000296499 0)
(0.000797336 0.000253425 -1.0723e-16)
(-0.000826472 0.000213021 1.26096e-16)
(-0.000774432 0.000295062 9.58132e-17)
(0.000733231 0.000293516 -1.95169e-16)
(-0.000878054 0.000329052 -1.35982e-16)
(-0.000732502 0.000309047 1.84901e-16)
(-0.000841974 0.000387589 1.01009e-16)
(-0.000575318 0.000227755 -1.08944e-16)
(-0.000775716 0.00029289 0)
(-0.00077266 0.000293775 0)
(-5.45374e-05 0.000387472 0)
(7.93971e-06 0.00100488 -2.50984e-16)
(-0.000820825 0.00028602 0)
(-0.000778175 0.000384129 -8.72314e-17)
(0.000749407 0.000287152 3.76168e-16)
(0.000718823 0.000305058 -1.11177e-16)
(0.000750238 0.000265115 3.79533e-16)
(0.000759091 0.000315523 -5.49161e-17)
(0.000753483 0.000285946 -5.54897e-21)
(-0.000765403 0.000308841 -4.91295e-17)
(-0.00076744 0.000299663 -9.63679e-17)
(-6.29325e-05 0.00118608 5.97399e-18)
(-0.000770158 0.000297161 -1.95299e-16)
(-0.000765056 0.000320358 -5.15037e-17)
(0.000717095 0.0003117 0)
(-0.000772402 0.0002969 -9.75881e-17)
(-0.000828411 0.000309787 -3.58926e-16)
(-0.000754157 0.000338848 -1.39396e-17)
(-0.000775905 0.000289926 0)
(-0.000782904 0.000252091 4.83502e-17)
(-0.000772051 0.000285831 -9.8768e-17)
(0.000817842 0.000360453 -2.08726e-16)
(-0.000766053 0.000304075 -9.94728e-17)
(0.000109368 0.00114932 6.96561e-18)
(0.000734455 0.000266483 2.44314e-17)
(-2.18878e-05 0.00112702 -1.98862e-16)
(-0.000854418 0.000358383 2.82356e-16)
(-0.000745295 0.000251083 -3.98534e-16)
(0.000752187 0.000290261 1.03055e-16)
(-0.000855386 0.000358734 1.25938e-16)
(0.000111941 0.000586399 8.11338e-17)
(-0.000764119 0.000302881 1.97982e-16)
(0.000731572 0.000249362 1.76672e-16)
(-8.40767e-06 0.00110591 0)
(-1.93925e-05 0.00097376 -2.83929e-16)
(-0.000766682 0.000317159 -1.5723e-16)
(0.000742916 0.000253228 -5.1959e-17)
(-8.69889e-06 0.00110296 7.90283e-19)
(0.000902268 0.000359109 9.7672e-17)
(-0.00070907 0.000284618 2.95301e-16)
(-0.000774481 0.000294246 -5.09891e-17)
(-0.000784534 0.000275481 0)
(-0.000801282 0.000291679 2.29034e-16)
(0.000743114 0.000300626 -2.02298e-16)
(-0.000767684 0.000300249 -9.68024e-17)
(0.000740278 0.000293939 0)
(-1.76736e-06 0.00109701 -2.01875e-16)
(-0.000826194 0.000314733 1.20771e-16)
(0.000863948 0.000774326 -3.66332e-16)
(0.000762645 0.000290558 0)
(-4.89573e-06 0.00109715 0)
(0.000782724 0.000313816 5.94433e-21)
(3.25878e-06 0.00109393 -2.02113e-16)
(1.73549e-06 0.00109686 4.01908e-16)
(-0.000765357 0.000300498 4.98498e-17)
(-6.84916e-05 0.00113005 1.9771e-16)
(-2.91718e-06 0.00109313 0)
(-7.06376e-06 0.00109829 2.01158e-16)
(-0.000766041 0.000298692 0)
(0.000884556 0.000489395 0)
(3.59883e-06 0.00109544 0)
(-1.70504e-06 0.00109532 -2.01441e-16)
(-0.000763922 0.000313797 0)
(-3.92371e-06 0.00109609 4.05277e-16)
(-0.000772993 0.000292933 0)
(-1.61082e-06 0.00109601 -2.02422e-16)
(-0.000766846 0.00029885 -2.93186e-16)
(-1.93175e-06 0.00109241 0)
(-0.000759356 0.00031514 9.67037e-17)
(-0.000346834 0.00125296 -4.71374e-17)
(0.000805448 0.000364555 2.5026e-16)
(0.000828153 0.000310518 0)
(2.19878e-07 0.00109522 1.45302e-20)
(-4.29797e-06 0.00109681 -1.99392e-16)
(-0.000780917 0.000255028 -8.51757e-17)
(0.000732948 0.000329132 -2.05745e-16)
(0.000656786 0.000267521 0)
(0.00074824 0.000287823 3.10266e-16)
(-8.08137e-07 0.00109549 2.02001e-16)
(-0.000764361 0.000299772 0)
(-2.69773e-05 0.00110765 2.00566e-16)
(-7.93915e-07 0.00109295 0)
(-1.876e-06 0.00109465 -2.04882e-16)
(-0.000769562 0.000299937 0)
(0.000754059 0.00032744 1.95268e-16)
(-0.000772166 0.000295393 2.68277e-21)
(2.67235e-07 0.00109263 2.02887e-16)
(0.000764317 0.000280361 -4.19354e-16)
(0.000116503 0.000645426 0)
(-3.95911e-06 0.0010967 0)
(0.000848946 0.000392412 1.46626e-16)
(0.000752731 0.000261476 0)
(-8.56589e-05 0.00117551 0)
(-0.000771982 0.000292073 -3.52293e-16)
(-2.94524e-05 0.00112213 0)
(-0.000767494 0.000299644 9.75581e-17)
(-0.000650789 0.000556007 -5.2538e-17)
(-0.000763952 0.000314007 2.01114e-16)
(2.68617e-07 0.00109353 -4.04629e-16)
(-0.000784012 0.00028872 5.41577e-17)
(-0.000758996 0.000315227 1.92965e-16)
(-1.34618e-06 0.00109417 0)
(-2.66582e-06 0.00109251 -1.98251e-16)
(0.000706061 0.000237387 0)
(3.53207e-07 0.0010949 -2.04208e-16)
(7.01105e-07 0.0010938 0)
(-5.14081e-05 0.00113747 2.01278e-16)
(1.64583e-07 0.000978693 -2.27207e-16)
(-0.000753876 0.000327659 1.17408e-16)
(-1.58373e-05 0.0011096 9.8174e-20)
(0.000544531 0.000159833 0)
(-0.000792204 0.000289089 7.99858e-17)
(-0.00074891 0.000318739 4.68857e-17)
(2.33523e-06 0.00109204 4.05019e-16)
(-4.34755e-06 0.00109615 2.01603e-16)
(-0.000783248 0.000302637 -4.66003e-16)
(6.9219e-07 0.00109393 2.02685e-16)
(0.000689448 0.000216317 6.65769e-21)
(-5.64136e-06 0.00109408 2.00604e-16)
(-0.00077503 0.000294496 0)
(-0.000762936 0.000306717 5.12184e-17)
(-5.78818e-07 0.00109436 -1.45967e-20)
(0.000745004 0.000373809 2.10084e-16)
(-0.000770401 0.0003009 -1.02842e-16)
(-0.000759905 0.000313855 -8.99003e-17)
(-2.72401e-06 0.00109561 -2.01526e-16)
(0.000748307 0.000293631 3.51598e-18)
(-1.26447e-07 0.0010948 -1.46007e-20)
(-0.000777727 0.000293551 4.80868e-17)
(3.52732e-06 0.00109284 0)
(-0.000772507 0.000291778 0)
(-6.38381e-06 0.00109565 -2.01468e-16)
(5.54236e-07 0.00109471 2.02267e-16)
(0.000745891 0.000310985 -2.45281e-17)
(-0.000786809 0.000270937 2.19722e-16)
(-5.81863e-06 0.00109424 1.99774e-16)
(1.35867e-06 0.00109266 0)
(-0.000765356 0.00031106 0)
(-0.000762047 0.000313618 1.53403e-16)
(-0.000787532 0.000249146 0)
(-4.0918e-05 0.000674369 -1.08309e-16)
(-2.03813e-07 0.00109472 2.02712e-16)
(-0.000760212 0.00031266 -1.45373e-16)
(-0.000766011 0.000301213 0)
(-0.000762766 0.000290188 5.30131e-17)
(-1.02126e-05 0.00109794 1.97009e-16)
(5.31115e-08 0.0010931 -1.46739e-20)
(-0.000768334 0.000293653 -5.14131e-17)
(0.000445246 5.36381e-05 -2.18994e-16)
(-9.76254e-06 0.00110038 -2.00428e-16)
(-3.17501e-06 0.00109596 2.02106e-16)
(1.51656e-06 0.00109326 2.02984e-16)
(-1.68857e-07 0.0010969 -2.00158e-16)
(0.00091315 0.000463906 -1.92049e-16)
(-6.57887e-06 0.00109424 -2.01111e-16)
(-0.000773954 0.000292271 0)
(-0.000762809 0.000288217 0)
(0.000734075 0.000287637 0)
(-1.68954e-06 0.001093 -2.03572e-16)
(-0.000759141 0.00031474 2.48144e-16)
(0.000744049 0.000275998 -1.57152e-16)
(-0.000732428 0.000297366 2.71355e-16)
(-0.00076754 0.000298846 -1.96918e-16)
(-0.000768714 0.000297229 -1.01263e-16)
(-0.000829091 0.00039021 -1.00455e-16)
(-3.28618e-06 0.00109346 -4.05797e-16)
(2.99516e-06 0.00109313 8.46291e-20)
(-0.000768616 0.000319347 -5.80051e-17)
(-0.000769223 0.000308069 4.59962e-17)
(-0.000769031 0.000298631 -5.05271e-17)
(4.42157e-06 0.00109446 -2.02619e-16)
(8.99334e-07 0.00109311 4.1023e-16)
(-5.40772e-06 0.00109428 -2.02963e-16)
(9.26213e-07 0.00109426 -7.95375e-19)
(-0.000767373 0.000303749 4.91298e-17)
(-3.81829e-06 0.00109355 0)
(5.25643e-06 0.00109391 -2.03786e-16)
(3.532e-06 0.00109274 2.02752e-16)
(4.54174e-06 0.00109453 3.50526e-20)
(-0.000769214 0.000291695 1.0207e-16)
(-6.14028e-06 0.00110032 0)
(-0.000770602 0.000293049 -2.00618e-16)
(-0.00079469 0.000286427 0)
(0.000753707 0.000288266 -2.22461e-16)
(-4.62497e-07 0.00109376 -1.57906e-18)
(0.000717434 0.000290435 1.97904e-16)
(6.96979e-07 0.00109368 -1.4535e-20)
(-6.63467e-05 0.00112253 0)
(-4.46369e-05 0.00110844 -1.99273e-16)
(-0.000770761 0.000293947 0)
(-0.000776627 0.000293031 -9.86568e-17)
(7.54214e-06 0.00109301 0)
(-0.000764615 0.00029602 -2.14075e-16)
(-0.000768242 0.000300778 -1.06355e-16)
(0.000749799 0.000298995 2.13743e-16)
(4.24146e-07 0.00109352 -2.03086e-16)
(-6.31561e-06 0.00109431 -2.03162e-16)
(-0.000771961 0.00030443 5.55541e-17)
(-1.21615e-06 0.00109377 -2.00309e-16)
(-0.000761488 0.000289262 3.11588e-16)
(-5.15623e-06 0.00109333 -2.02292e-16)
(1.55265e-06 0.00109396 -1.45604e-20)
(-0.000770428 0.000336134 -2.36562e-16)
(-6.93682e-06 0.00109412 2.00631e-16)
(0.000755027 0.000285226 0)
(-0.000767079 0.000300156 -5.02515e-17)
(-3.78878e-07 0.00109354 3.18895e-18)
(-0.000772761 0.00028921 1.00776e-16)
(-1.93203e-07 0.00109319 -1.60075e-18)
(-0.000767371 0.00029459 5.04608e-17)
(-0.000729306 0.000268223 0)
(2.90534e-06 0.00109404 -1.46337e-20)
(-0.000836803 0.000353293 3.00919e-16)
(6.67828e-07 0.00109456 2.04472e-16)
(0.000703116 0.000349259 -5.87779e-17)
(-0.000746049 0.000325751 1.95207e-16)
(-2.3472e-07 0.00109385 2.04618e-16)
(0.000558843 0.000221297 2.15027e-16)
(-1.42527e-06 0.00109392 2.03323e-16)
(8.86248e-07 0.00109375 3.17273e-18)
(0.000640427 0.000234469 2.27234e-16)
(0.000685588 0.000243206 -2.12542e-16)
(0.000779625 0.000306275 0)
(-0.000830599 0.000339134 0)
(-6.37551e-06 0.00109403 -1.59109e-18)
(0.000711682 0.000271117 2.79973e-16)
(-6.20377e-06 0.00109337 -1.57974e-18)
(-0.000768973 0.00029796 -9.82435e-17)
(0.000703696 0.000234384 0)
(5.78255e-06 0.0010936 -4.05559e-16)
(9.59151e-07 0.00109365 -4.08074e-16)
(-0.000765077 0.000308654 0)
(-0.000769529 0.000291364 0)
(6.72326e-07 0.00109451 -4.05525e-16)
(-2.18181e-05 0.0011049 0)
(-0.000761914 0.000318696 -1.95482e-16)
(-1.46506e-05 0.00109992 -4.00519e-16)
(-0.000699419 0.000255668 0)
(0.000795599 0.000243981 5.24854e-17)
(5.48211e-08 0.00109249 -1.60742e-18)
(2.51541e-06 0.00109482 2.04313e-16)
(0.000598263 0.000373147 -7.03683e-18)
(2.96785e-07 0.00109362 -2.04795e-16)
(-0.000773794 0.000285386 1.57439e-16)
(-0.000830634 0.000381625 1.38985e-16)
(-6.85628e-06 0.00109385 2.0187e-16)
(-0.000772391 0.000288724 1.45749e-16)
(-1.19853e-06 0.00109414 2.04816e-16)
(-6.41244e-06 0.00109351 -2.02608e-16)
(-7.20565e-06 0.0010937 -2.0191e-16)
(-0.000762165 0.000310032 0)
(-0.000770958 0.000289739 -4.98688e-17)
(-7.70749e-07 0.00109344 -7.98794e-19)
(6.57779e-06 0.00109392 0)
(-0.000761072 0.00030991 1.9869e-16)
(-0.000768004 0.000289865 0)
(9.91278e-07 0.00109371 -2.03404e-16)
(-5.34336e-06 0.00109714 3.16235e-18)
(0.000748565 0.000290704 -2.14737e-16)
(1.00178e-06 0.00109374 -4.10858e-16)
(-0.000826801 0.00031974 3.4158e-16)
(-4.09665e-07 0.00109373 0)
(-3.30498e-07 0.00109392 2.02763e-16)
(-2.17544e-07 0.00109384 0)
(-1.80451e-08 0.00109365 2.02823e-16)
(8.2683e-07 0.00109358 -2.0231e-16)
(0.000629946 0.000250198 1.21378e-16)
(2.8873e-07 0.00109337 2.02452e-16)
(5.04715e-07 0.00109595 -1.46595e-20)
(-5.5359e-09 0.00109371 2.04805e-16)
(-7.47969e-06 0.00109389 4.04653e-16)
(-0.00077078 0.000294725 0)
(-0.00077057 0.000296493 -5.25282e-17)
(-6.52694e-06 0.00109365 0)
(-1.50102e-07 0.00109377 0)
(-7.76882e-07 0.0010933 -2.06616e-16)
(6.5767e-06 0.00109423 2.03102e-16)
(5.45424e-06 0.00109422 2.03867e-16)
(-0.000768536 0.00030021 2.57699e-16)
(5.86996e-06 0.00109373 2.03298e-16)
(-4.21349e-07 0.00109398 -2.04797e-16)
(-1.03931e-06 0.00109381 0)
(-2.91088e-07 0.00109371 -1.47073e-20)
(-0.000770318 0.000296661 1.00377e-16)
(6.51742e-06 0.00109386 0)
(6.1771e-06 0.00109346 2.0344e-16)
(-2.60163e-06 0.00109583 -2.0526e-16)
(-0.000774866 0.000288847 0)
(-4.98481e-09 0.00109374 0)
(0.000755563 0.000290843 -2.13234e-16)
(-1.24661e-07 0.00109448 1.59882e-18)
(-1.04442e-07 0.00109475 -3.98545e-19)
(-5.27969e-06 0.00109281 -7.9208e-19)
(-7.2613e-06 0.00109353 1.46027e-20)
(-5.82299e-06 0.00109305 7.92727e-19)
(-0.000776401 0.00034532 -1.24098e-16)
(-6.97078e-06 0.00109296 2.03614e-16)
(3.67276e-06 0.00109384 0)
(-6.83853e-06 0.00109312 2.02166e-16)
(-6.93714e-06 0.00109335 -2.02512e-16)
(-7.32236e-06 0.00109381 -2.03452e-16)
(-0.000929262 0.000760714 -3.08469e-16)
(-0.000176637 0.000218653 -3.843e-16)
(6.72951e-06 0.00109397 -2.03717e-16)
(-6.61216e-07 0.00109365 -2.03075e-16)
(7.69221e-08 0.0010939 -2.03029e-16)
(6.05324e-06 0.00109345 2.03502e-16)
(-0.000774277 0.000292083 -2.02476e-16)
(-7.76319e-06 0.00109334 2.02144e-16)
(-6.63494e-07 0.0010939 -2.02694e-16)
(-5.03602e-06 0.001096 -4.03174e-16)
(-5.59172e-07 0.00109356 -1.60332e-18)
(7.18933e-06 0.00109355 2.02732e-16)
(0.000749691 0.000287358 2.13268e-16)
(-2.31199e-06 0.00109426 -2.02733e-16)
(4.28226e-07 0.00109372 -1.45912e-20)
(0.000799024 0.000329205 -2.63009e-16)
(-2.34787e-07 0.00109367 0)
(-4.69717e-07 0.00109371 0)
(-7.73898e-06 0.00109355 -4.0626e-16)
(-0.000770455 0.000295585 1.00718e-16)
(1.46962e-07 0.00109307 -4.005e-19)
(-8.9713e-06 0.00109391 2.12283e-19)
(0.000753529 0.000284558 1.41757e-17)
(-8.24494e-06 0.00109446 2.03079e-16)
(8.16732e-06 0.00109395 2.03052e-16)
(7.49096e-06 0.00109374 -2.02904e-16)
(1.86279e-06 0.00109367 -2.03475e-16)
(-8.77168e-06 0.00109401 1.45959e-20)
(-0.000799562 0.000281667 -2.15478e-16)
(-0.000648989 0.000246863 2.65482e-16)
(-8.27188e-07 0.00109263 -1.46755e-20)
(-5.05305e-07 0.00109362 -2.02593e-16)
(-0.000763811 0.000310811 5.11244e-17)
(6.94957e-07 0.00109379 -1.47076e-20)
(-8.08932e-06 0.00109318 8.05164e-19)
(8.11959e-06 0.00109355 -4.06049e-16)
(3.66026e-06 0.00109251 2.03837e-16)
(6.88344e-06 0.0010933 -2.03835e-16)
(6.77541e-06 0.00109353 -2.03829e-16)
(8.10964e-06 0.00109369 2.03129e-16)
(6.7391e-06 0.00109339 1.98682e-19)
(8.05064e-06 0.00109373 0)
(0.000755594 0.000285713 0)
(-6.54561e-06 0.00109382 2.04492e-16)
(-5.28331e-07 0.00109496 0)
(1.45631e-06 0.00109455 2.0374e-16)
(8.06651e-06 0.00109368 0)
(8.03088e-06 0.00109379 2.03197e-16)
(8.14018e-06 0.0010936 -9.91929e-20)
(8.83222e-07 0.00109453 1.99367e-16)
(7.31207e-06 0.00109417 0)
(-2.01262e-06 0.00109481 0)
(-6.78222e-06 0.00109465 -2.04712e-16)
(-0.000768498 0.000297435 -2.46851e-21)
(7.15617e-06 0.00109367 0)
(-1.62306e-05 0.00111236 0)
(7.04061e-06 0.00109369 0)
(-0.000752311 0.000286794 1.57172e-16)
(5.70297e-07 0.00109372 -2.02846e-16)
(-5.04994e-06 0.001096 2.04685e-16)
(7.36148e-06 0.00109434 -9.94065e-20)
(-0.000751359 0.00031571 5.56774e-17)
(-0.000764539 0.000310644 -5.08327e-17)
(6.44989e-06 0.00109411 -2.03823e-16)
(-1.88742e-06 0.00109201 0)
(-2.7413e-07 0.00109566 -2.03904e-16)
(6.52406e-06 0.00109421 1.46486e-20)
(8.11503e-06 0.00109353 -2.03663e-16)
(-9.11789e-07 0.00109134 4.05048e-16)
(0.000730991 0.000241586 -3.656e-16)
(0.0007547 0.000293043 -4.30925e-16)
(-1.09609e-06 0.00109408 4.07258e-16)
(0.000744224 0.000292867 0)
(6.37459e-06 0.00109421 0)
(8.23765e-06 0.00109339 -3.97004e-19)
(-0.000786821 0.000311718 -1.84025e-16)
(-0.000767163 0.000314373 1.05907e-16)
(5.12676e-07 0.00109327 -1.00206e-19)
(6.43222e-06 0.00109431 2.03875e-16)
(6.95258e-07 0.00109372 -2.03134e-16)
(-0.000701148 0.000671 1.02779e-16)
(6.09092e-06 0.00109418 7.96861e-19)
(-7.89852e-06 0.00109431 2.03305e-16)
(-6.46002e-07 0.00109524 2.04075e-16)
(-0.000876332 0.000448718 -2.01503e-16)
(6.29215e-06 0.00109454 0)
(-4.48612e-07 0.00109384 4.01581e-19)
(-1.65777e-06 0.0010949 -2.03109e-16)
(-0.000771027 0.000292335 0)
(0.000784859 0.000218226 3.85791e-16)
(-0.000759822 0.000317264 5.36687e-17)
(6.01766e-06 0.00109429 -7.96992e-19)
(8.46939e-07 0.00109408 -2.03833e-16)
(-7.02899e-06 0.00109308 -2.0366e-16)
(-0.000767237 0.000308301 3.041e-16)
(6.04902e-06 0.00109466 -2.04093e-16)
(-9.26517e-06 0.00109348 7.93035e-19)
(4.8565e-07 0.00109325 2.00595e-19)
(7.5105e-06 0.00109348 0)
(-3.08536e-07 0.00109543 0)
(7.59895e-06 0.00109339 0)
(7.90114e-07 0.00109412 0)
(-0.000768555 0.000292401 -5.05814e-17)
(-8.28238e-06 0.00109308 0)
(-5.39543e-07 0.00109377 0)
(0.000811579 0.000381395 1.57512e-16)
(5.54529e-07 0.00109411 0)
(-4.44593e-05 0.00113835 0)
(-2.21213e-07 0.00109543 4.08017e-16)
(4.0621e-07 0.00109326 0)
(0.000748917 0.000274556 -4.81153e-17)
(0.000753231 0.000292552 0)
(0.000665966 0.000340573 1.05925e-16)
(0.000737225 0.000264582 -2.06202e-16)
(8.56935e-07 0.00109439 -4.07232e-16)
(-0.000691556 0.000301922 0)
(3.30329e-07 0.00109414 -1.99185e-19)
(-0.000763241 0.000308985 -9.91597e-17)
(8.46021e-06 0.00109356 0)