/*--------------------------------*- C++ -*----------------------------------*\
  =========                 |
  \\      /  F ield         | OpenFOAM: The Open Source CFD Toolbox
   \\    /   O peration     | Website:  https://openfoam.org
    \\  /    A nd           | Version:  12
     \\/     M anipulation  |
\*---------------------------------------------------------------------------*/
FoamFile
{
    format      ascii;
    class       volVectorField;
    location    "0.04";
    object      U;
}
// * * * * * * * * * * * * * * * * * * * * * * * * * * * * * * * * * * * * * //

dimensions      [0 1 -1 0 0 0 0];

internalField   nonuniform List<vector> 
4428
(
(0.000304297 0.00011563 1.0143e-16)
(-0.000307816 0.000127684 -9.03838e-17)
(-0.00028395 0.00013134 0)
(-0.000290552 0.000124187 0)
(0.000278691 0.000234774 8.16404e-17)
(0.00029909 0.00024493 3.37053e-21)
(-0.000279818 0.000167468 0)
(-0.000310861 0.000110316 1.46412e-16)
(0.00030446 0.000128112 -2.49068e-16)
(0.000317407 8.96504e-05 9.95389e-17)
(-0.000291281 9.83425e-05 -1.73332e-16)
(0.000281654 0.000128394 -1.76864e-16)
(-0.000324642 6.24966e-05 -2.03662e-16)
(-9.62566e-05 0.000356474 -9.58169e-17)
(0.000299925 0.000115781 0)
(0.000278393 9.91422e-05 0)
(0.00031749 0.000116051 0)
(-0.000291315 9.83505e-05 0)
(-0.000326038 6.1853e-05 0)
(0.000305519 0.000113288 0)
(0.000106952 8.82134e-05 -4.48038e-16)
(-0.000307127 0.000117153 -1.77703e-16)
(-0.000288815 0.000126772 0)
(-0.000322235 0.000103093 0)
(-0.000305477 0.000116678 2.26619e-17)
(-0.000290268 0.000103143 0)
(-0.000294578 0.000161661 1.03358e-16)
(0.000300065 8.96058e-05 2.07805e-16)
(0.00028371 0.000140488 0)
(-0.000330699 6.95802e-05 0)
(0.000310238 6.54421e-05 0)
(-0.000310479 0.000115645 -1.84206e-16)
(0.00031249 0.000100033 -9.00201e-17)
(-0.000321281 0.000160458 -2.77426e-16)
(-1.00467e-05 0.00041932 4.69777e-17)
(-0.00030881 0.000121495 1.99864e-16)
(-0.000307115 0.000158965 -4.4178e-21)
(0.000281037 0.000378961 1.27045e-17)
(-3.65946e-05 0.000363267 -2.62237e-17)
(-0.000291112 0.000129495 0)
(0.000310573 0.000111476 0)
(0.000270919 8.13226e-05 0)
(0.000289765 9.73165e-05 9.24326e-17)
(-0.000318595 9.98047e-05 1.66059e-16)
(0.000304101 8.7737e-05 0)
(0.00024483 9.35901e-05 0)
(0.000285885 0.000279129 -9.97852e-17)
(-0.000288019 0.000144845 2.03145e-16)
(-0.000296354 0.00013058 2.24462e-16)
(-0.000304896 0.000136267 0)
(0.000305918 0.000131454 0)
(0.000265216 0.000138584 1.88124e-16)
(0.000317157 9.24157e-05 -9.13193e-17)
(0.000268941 0.000142317 0)
(0.000279544 0.000122453 -1.39785e-17)
(0.000191308 8.61186e-05 0)
(0.000279293 0.000135919 -9.29938e-17)
(-0.000289752 8.8357e-05 0)
(0.000253451 0.000272951 1.82963e-16)
(0.000299563 9.93828e-05 -1.82012e-16)
(0.000315005 0.0001211 1.67098e-16)
(-0.000317755 0.000100122 0)
(0.000273312 0.000106034 2.79954e-16)
(-0.000310075 0.000115408 9.2699e-17)
(-0.000308223 0.00012185 0)
(0.000284019 0.000124533 0)
(-0.00031569 0.000101119 1.73159e-16)
(-0.000292185 0.000126365 -1.85822e-16)
(0.000294696 0.000103329 -1.82187e-16)
(-0.000306819 0.000132303 -3.61912e-16)
(-0.000316926 9.64543e-05 -9.1614e-17)
(0.000293889 0.000135551 2.12655e-16)
(0.000326264 0.000147623 5.80513e-17)
(-0.000285953 0.000121904 4.46958e-17)
(0.000302579 0.000107064 1.96651e-16)
(-5.14399e-06 0.000409432 -1.83297e-16)
(0.000319431 0.000148016 0)
(0.000328885 0.000134697 0)
(-0.000284574 0.000168885 -1.18146e-16)
(0.000213478 9.6896e-05 -4.15256e-21)
(0.000279551 0.000144523 -1.97541e-16)
(-0.000313498 9.76565e-05 0)
(0.000286286 0.000140645 -1.81065e-16)
(0.00029515 0.000128088 -1.72067e-16)
(0.000315337 0.000114253 3.18308e-16)
(-0.000342988 9.75746e-05 -2.54693e-16)
(-4.49049e-05 0.000470306 1.15145e-16)
(-0.000313238 0.000115164 0)
(-0.000309185 0.000116955 -9.60349e-17)
(0.000281811 0.000124312 2.04743e-17)
(0.000303596 8.86119e-05 8.36656e-17)
(0.000310654 0.000111365 -1.5937e-16)
(-0.000314557 0.000125065 0)
(-0.000320795 0.000120611 0)
(-0.000308632 0.000122178 9.81702e-17)
(-0.000297788 0.000128284 1.67121e-16)
(0.00031672 0.000124219 1.13532e-16)
(-0.000324494 0.000124143 -1.19904e-16)
(-0.000317451 9.52636e-05 9.28715e-17)
(0.000287566 0.000162932 0)
(0.000285638 0.00013326 -2.25143e-17)
(0.000295407 0.000116717 0)
(0.000303188 0.000105707 0)
(0.000274151 0.00010492 -1.87988e-16)
(0.000278738 0.000135838 -1.03702e-16)
(0.000277904 0.000132393 2.42655e-21)
(0.000299747 0.000123444 1.90328e-16)
(-0.000308132 0.000150952 -1.22457e-16)
(0.000320967 0.000122815 -1.20824e-16)
(0.000285676 0.000149673 0)
(0.000298526 9.6323e-05 1.64697e-16)
(0.000298267 0.000114157 -1.94806e-16)
(-0.000287074 0.000120229 2.68548e-21)
(0.000282394 0.00010797 1.65966e-16)
(-0.000176747 0.000110265 1.15543e-16)
(-0.000317772 9.43248e-05 1.80235e-16)
(-6.78638e-05 0.000399409 0)
(0.000124143 9.78817e-05 5.2475e-17)
(-0.000320369 0.000103701 8.87661e-17)
(0.000325411 0.000131206 -1.12862e-16)
(0.000329953 0.0001269 2.11534e-16)
(-0.000284825 0.000170338 2.41281e-16)
(0.000206331 0.000337695 -1.96899e-16)
(0.000310449 0.000101785 -3.03622e-16)
(6.17542e-06 0.000419877 1.78761e-16)
(-0.000310482 0.000115574 0)
(-0.000314857 0.00010291 -2.72261e-16)
(0.00028595 0.000123375 9.95098e-17)
(-0.00030814 0.000126361 -3.04104e-16)
(-0.000309858 0.000121035 9.66778e-17)
(-0.00031699 9.73977e-05 -1.87135e-16)
(-0.000302837 0.000125598 0)
(0.000309367 0.000124057 2.24129e-16)
(0.000292258 0.00011317 0)
(0.00029698 0.000115664 0)
(0.000317648 0.000137139 6.53701e-21)
(0.000324863 0.000135627 -2.43674e-16)
(-0.000317357 9.56995e-05 -1.8239e-16)
(-0.000310281 0.00011839 -1.83553e-16)
(-0.000306928 0.000124424 1.4395e-16)
(-0.000309542 0.000152732 -1.23708e-16)
(-0.000309954 0.000112185 -9.67495e-17)
(0.000292676 0.000117988 0)
(0.000295203 0.00011849 -1.99431e-16)
(0.00030736 0.000114275 0)
(0.000291839 0.000112455 9.67655e-17)
(0.000319031 0.000150543 1.28477e-16)
(-6.94739e-06 0.000296042 -9.13958e-17)
(0.000329757 8.24421e-05 2.88892e-16)
(-7.15493e-06 0.000418272 4.54414e-17)
(-0.000310254 0.000115757 -1.99515e-16)
(-0.000200178 9.17862e-05 1.00284e-16)
(0.000296204 8.92779e-05 -9.69568e-21)
(0.000331898 0.000111604 -2.48626e-16)
(-0.000309636 0.000120907 2.91598e-16)
(0.000312969 0.000115364 0)
(0.00028818 0.000192186 -1.7713e-16)
(0.000305508 8.8448e-05 -9.48495e-17)
(0.000307511 0.000105174 -1.78769e-16)
(-0.000312909 9.91952e-05 -9.12355e-17)
(-0.000307952 0.000128445 1.9545e-16)
(0.00029896 0.000118916 0)
(0.000326623 9.78748e-05 0)
(-0.000108231 4.83548e-05 -2.17179e-16)
(-0.0003237 0.000142138 1.19566e-16)
(-0.000317783 9.69326e-05 0)
(-0.00030881 0.000113105 0)
(0.000326338 9.90084e-05 0)
(-0.000309215 0.000118075 1.95269e-21)
(-0.000309507 0.000134483 9.36799e-17)
(-0.000315196 0.000101128 -9.3801e-17)
(0.000308433 0.000123399 4.0126e-21)
(-0.000310443 0.000116044 0)
(0.000275652 0.000118823 0)
(0.000284477 0.000370641 -1.16377e-17)
(-0.000326133 0.000143221 2.29082e-16)
(0.000311983 0.000110957 0)
(0.000268564 0.00014264 2.14593e-16)
(0.000294455 0.000129696 2.17943e-16)
(-0.000325552 0.000141754 1.14321e-16)
(-4.85944e-05 0.000415745 -6.90195e-21)
(-0.000299687 0.000125077 1.75081e-16)
(-0.000312169 0.000109069 1.91954e-16)
(0.000288637 0.000108258 0)
(-0.000309987 0.000115972 3.00576e-16)
(-0.000305278 0.000145787 -9.52185e-17)
(0.000305823 0.000119325 0)
(-0.000309161 0.000120573 0)
(0.000267688 0.000109193 3.43577e-16)
(0.000310452 0.000139844 0)
(0.000300244 0.000108843 0)
(0.000312683 0.000156919 2.58474e-17)
(0.000304769 0.00010657 0)
(0.000303969 0.000135462 -3.67879e-16)
(-0.000297699 0.000146103 0)
(-0.000297431 0.000145207 -1.8087e-16)
(-0.00029711 0.000144748 2.70928e-16)
(-0.000295089 0.000141939 8.88789e-17)
(0.000421486 0.000244159 1.48761e-16)
(-9.88886e-05 0.00044011 0)
(0.000305165 0.000138794 2.13767e-16)
(-0.000311964 0.000112968 -1.94083e-16)
(0.000247479 0.000131599 -1.90311e-16)
(-0.000314251 9.99611e-05 0)
(0.000277539 0.00011068 -1.76634e-16)
(0.00030186 0.000105908 -2.98063e-18)
(-0.000308624 0.000118684 9.32597e-17)
(-6.88038e-05 0.000479004 -1.77912e-16)
(-0.000158857 0.000415273 1.11843e-17)
(0.000204578 0.000106351 0)
(0.000310735 0.000135376 0)
(0.0003462 0.000116156 0)
(0.000306998 0.00012909 5.9278e-21)
(-0.00031147 0.000109382 0)
(0.000301457 0.000111203 0)
(-0.000300802 0.000143022 -1.40091e-16)
(-0.000298154 0.000141139 1.83787e-16)
(1.45515e-05 0.000418434 -1.84696e-16)
(-0.000293283 0.000117489 1.99302e-16)
(-0.000296189 0.000144063 -4.53601e-17)
(0.000306226 0.000128371 1.95368e-16)
(0.000333326 0.000113352 -6.15129e-17)
(-0.000306903 0.000119834 1.85473e-16)
(0.000321954 0.000144695 0)
(-0.000297916 0.000144452 0)
(-0.000309723 0.00011628 0)
(-0.000310563 0.000119552 -1.08728e-16)
(0.000299777 0.000107376 -1.93046e-16)
(0.000285695 0.000121749 3.82835e-21)
(-0.0003088 0.000120386 0)
(-0.000309803 0.000112715 9.83258e-17)
(-0.000191782 0.000381269 0)
(0.000262768 0.000171121 0)
(5.16789e-05 0.000465113 8.61768e-17)
(0.000290374 0.000120782 5.74637e-17)
(-0.000300556 0.000139253 0)
(-0.000299443 0.000142114 0)
(-0.000299819 0.000141022 1.88221e-16)
(-0.000300595 0.000140125 -1.86177e-16)
(-0.000313627 0.000101996 2.97774e-16)
(-3.10889e-05 8.45871e-05 5.13892e-17)
(-0.000328259 0.000130085 -5.90077e-17)
(-0.000292339 0.000142803 6.23714e-17)
(0.000299212 0.000120241 2.23739e-17)
(-0.00031093 0.000110372 -9.62599e-17)
(-8.44799e-05 0.000315628 -1.01158e-16)
(-0.000307088 0.000147553 1.8933e-16)
(-0.000312107 0.000111511 1.92819e-16)
(0.000357586 0.0002384 0)
(-3.46852e-05 0.000312312 0)
(-0.000324217 0.000132878 6.05126e-21)
(0.000294157 0.000116877 2.04399e-16)
(0.000305505 0.000130785 -1.05652e-16)
(-0.000298329 0.00014084 1.81891e-16)
(0.000262467 9.72008e-05 -1.3132e-16)
(5.47881e-05 3.62013e-05 1.07918e-16)
(-0.00029932 0.000141112 -3.65594e-16)
(-1.55065e-08 0.000415718 0)
(-0.000355092 0.000122151 -3.66798e-17)
(-0.000302059 0.000139367 -2.11766e-16)
(-0.000301314 0.000139985 1.90023e-16)
(-0.000107697 5.36827e-05 2.1722e-16)
(-0.00030961 0.000113423 0)
(0.000334498 6.5462e-05 1.23015e-16)
(-0.000299517 0.000139859 -9.37866e-17)
(-0.000307655 0.000119218 -1.00074e-16)
(0.000319803 0.000115243 0)
(-0.000299819 0.000140583 0)
(-0.000209281 0.000455946 1.3728e-16)
(-0.000318742 0.00010804 -1.8374e-16)
(0.000301747 0.000103518 0)
(0.000313392 0.000150739 2.37184e-16)
(0.000299437 0.000119486 1.23127e-17)
(-5.93423e-05 0.000337725 2.58447e-16)
(-0.000309851 0.000117105 0)
(0.000293295 0.000125202 1.98135e-16)
(0.000303502 0.000113982 -2.63567e-16)
(-0.000310232 0.000112149 1.943e-16)
(0.000327034 0.000160616 0)
(5.27135e-05 3.43077e-05 -1.10466e-16)
(-0.000345487 0.000144046 -2.65583e-22)
(-5.08867e-05 0.000422166 9.6343e-17)
(0.000300594 0.000114076 0)
(-0.000312946 0.000103696 -2.99181e-16)
(0.000279973 0.000158268 3.93353e-16)
(0.0002743 0.000156908 -9.12459e-17)
(0.000303369 0.000119519 -1.32953e-17)
(0.000305378 0.000104556 -1.2625e-16)
(0.00030571 0.000121277 1.94441e-16)
(0.000304822 0.000113357 0)
(-0.00034035 9.78074e-05 1.43582e-16)
(-0.000320751 0.000104897 -1.87095e-16)
(-0.000302717 0.000136426 -7.47211e-19)
(0.000287214 0.000141473 0)
(0.00028293 0.000127247 2.14675e-16)
(9.85042e-05 3.2579e-05 2.31988e-16)
(-0.000307713 0.000114647 1.95537e-16)
(-0.000298756 0.000139543 2.07967e-16)
(-0.000306508 0.00014114 0)
(-0.000188433 0.000444515 1.96767e-16)
(-0.000311135 0.000112866 5.90461e-21)
(0.000288595 0.000111103 1.14696e-16)
(-0.000309349 0.000113902 0)
(-0.000301154 0.000139187 -1.18785e-17)
(-0.000300797 0.000140239 0)
(-0.000300234 0.000140268 -1.85915e-16)
(-0.000308846 0.00012104 0)
(-4.6334e-05 0.000464169 -1.19595e-16)
(0.000197068 0.000114766 -3.44564e-16)
(0.000294329 0.00015762 1.256e-16)
(-0.000309988 0.000113142 9.79728e-17)
(0.000295953 0.000117313 0)
(0.000316681 0.000154633 -1.26569e-16)
(-5.20769e-05 0.000450813 -1.90458e-16)
(0.000185382 6.24139e-05 -2.23909e-16)
(0.000299826 0.000123193 0)
(0.000304448 0.000137074 0)
(0.000298259 0.000126723 -1.8762e-16)
(-0.000312263 0.000105569 0)
(-0.00030782 0.000117575 1.96574e-16)
(-7.71306e-05 0.000497021 -6.1762e-18)
(-0.000326511 0.000147116 -1.01493e-16)
(-0.000284692 0.000109827 6.1089e-17)
(0.000294956 0.000114289 3.8933e-16)
(-0.000218835 0.000673421 -1.46083e-16)
(0.000504406 0.000199035 -1.97882e-16)
(0.000286239 0.000137364 -2.12589e-16)
(-0.000305663 0.000119291 9.64323e-17)
(-0.00030639 0.000143924 -1.21776e-17)
(-0.000298521 0.000141576 -1.89499e-16)
(0.000298917 0.000114181 2.09793e-16)
(-0.000308677 0.000114314 0)
(-0.000309295 0.000114143 9.90866e-17)
(-0.000355431 0.000121386 1.50963e-16)
(-0.000310113 0.00014877 0)
(-0.000305187 0.000141622 0)
(0.000311449 0.000150523 -1.23286e-16)
(0.000284278 0.000107906 0)
(-0.000309828 0.000115948 0)
(0.000289356 0.00011135 0)
(-0.00030053 0.00013932 1.18326e-17)
(-0.000304469 0.00013728 7.54752e-19)
(0.000281414 8.83935e-05 0)
(0.00030217 0.000111278 1.92894e-16)
(1.70083e-07 0.000419393 0)
(0.000306402 9.67027e-05 0)
(-0.000310578 0.000114445 4.92548e-17)
(-0.000312049 0.000111046 -3.0149e-16)
(2.86316e-05 0.000182856 0)
(-0.000306878 0.000118684 -1.93422e-16)
(-0.000328348 7.19536e-05 9.23839e-17)
(-0.000335844 0.000127198 -4.58644e-21)
(-0.000328088 0.000109211 -2.43402e-16)
(-0.000355755 0.00011868 1.51165e-16)
(-0.000301971 0.000145151 0)
(-0.000312508 0.000107621 2.02119e-16)
(-0.000306765 0.000117862 1.00297e-16)
(0.000301847 0.000114544 0)
(-0.000304574 0.000102989 1.62549e-16)
(-0.000308613 0.00011424 -2.68745e-16)
(-6.24834e-06 0.000404832 0)
(-0.00029867 0.000138345 -2.80443e-16)
(-0.000307319 0.000130461 0)
(-0.000310286 0.000115276 0)
(0.000306703 0.000111524 2.03122e-16)
(-0.000309392 0.000113247 1.01387e-16)
(0.000270211 9.52675e-05 2.14786e-16)
(0.000304096 0.000123304 -2.03936e-16)
(-0.000216091 0.000106293 0)
(-0.000327039 0.000109769 0)
(-0.000307164 0.000118644 0)
(0.0003003 0.000117011 -2.12714e-16)
(0.000312161 0.000140265 0)
(0.000304084 0.000114094 0)
(-0.000329148 0.00014269 -2.9937e-16)
(5.4593e-05 0.000403675 2.17991e-16)
(-0.000302982 0.000143026 1.92283e-16)
(0.000320772 9.80297e-05 -2.15593e-16)
(-7.32393e-06 0.00021486 -6.19442e-17)
(-0.000308805 0.000120572 0)
(-0.000307177 0.000131392 2.99762e-16)
(-0.00029392 0.000141569 -1.80343e-16)
(3.71243e-05 0.000317052 1.08289e-16)
(0.000327263 6.0176e-05 0)
(0.000334542 8.26522e-05 1.1471e-16)
(0.00028995 0.000124831 1.77805e-16)
(-6.09136e-05 4.61526e-05 2.10735e-16)
(-0.000308686 0.000113513 -9.0395e-17)
(0.000303166 0.000120426 0)
(0.000188235 7.13797e-05 0)
(0.000263388 7.88179e-05 3.86497e-16)
(-0.00030756 0.000118762 0)
(0.000318111 9.87413e-05 -1.07231e-16)
(-0.000333594 8.42543e-05 1.26097e-16)
(-0.000310063 0.000118153 9.58139e-17)
(0.000293355 0.000117419 -1.95171e-16)
(-0.000359245 0.000133915 -1.35984e-16)
(-0.000298685 0.00012758 1.84902e-16)
(-0.00033678 0.000155051 1.0101e-16)
(-0.000230197 9.18681e-05 -1.08945e-16)
(-0.000310328 0.00011714 0)
(-0.000309175 0.000117522 0)
(-2.47157e-05 0.000155502 0)
(7.96391e-06 0.000403676 -2.50986e-16)
(-0.000326564 0.000112405 0)
(-0.00031066 0.000154205 -8.72323e-17)
(0.00030028 0.000113842 3.76171e-16)
(0.000287631 0.000121983 -1.11177e-16)
(0.00030116 0.000104571 3.79536e-16)
(0.000304315 0.000124464 -5.49166e-17)
(0.000301245 0.000114311 -5.54445e-21)
(-0.000306136 0.000123782 -4.91299e-17)
(-0.000306972 0.000120317 -9.63687e-17)
(-2.53092e-05 0.000474411 5.97406e-18)
(-0.00030809 0.000118968 -1.953e-16)
(-0.000305977 0.00012833 -5.15042e-17)
(0.00028598 0.000124605 0)
(-0.000309189 0.000118995 -9.75888e-17)
(-0.00033835 0.000128555 -3.5893e-16)
(-0.000303675 0.000136096 -1.39397e-17)
(-0.000310348 0.000115814 0)
(-0.00031333 9.95208e-05 4.83506e-17)
(-0.000308895 0.000114364 -9.87687e-17)
(0.000326459 0.000144131 -2.08728e-16)
(-0.000306393 0.000121777 -9.94735e-17)
(4.69474e-05 0.000464537 6.96569e-18)
(0.000293719 0.000105906 2.44316e-17)
(-8.74811e-06 0.00045075 -1.98865e-16)
(-0.000341295 0.000148005 2.82359e-16)
(-0.000298635 9.91823e-05 -3.98537e-16)
(0.000300688 0.000115876 1.03056e-16)
(-0.000341522 0.000148208 1.25939e-16)
(4.39085e-05 0.000233157 8.11343e-17)
(-0.000305814 0.000121281 1.97984e-16)
(0.000292877 9.87653e-05 1.76674e-16)
(-3.38512e-06 0.000442234 0)
(-6.57257e-06 0.000383982 -2.83931e-16)
(-0.000306741 0.000127039 -1.57231e-16)
(0.000297728 0.000101384 -5.19595e-17)
(-3.4935e-06 0.000441042 7.90292e-19)
(0.000361152 0.000143855 9.76729e-17)
(-0.00028382 0.000114649 2.95303e-16)
(-0.000309849 0.000117726 -5.09894e-17)
(-0.000314749 0.000108177 0)
(-0.000319331 0.000115261 2.29037e-16)
(0.000297118 0.000120566 -2.023e-16)
(-0.000307105 0.000120502 -9.68031e-17)
(0.000295314 0.000117685 0)
(-6.97767e-07 0.000438731 -2.01877e-16)
(-0.000338749 0.00012743 1.20772e-16)
(0.00034566 0.000309519 -3.66337e-16)
(0.000304989 0.000116398 0)
(-1.94317e-06 0.000438759 0)
(0.000312871 0.000125298 5.93255e-21)
(1.34012e-06 0.000437416 -2.02115e-16)
(6.94614e-07 0.000438727 4.01912e-16)
(-0.000306178 0.000120262 4.98501e-17)
(-2.75408e-05 0.000452157 1.97712e-16)
(-1.14558e-06 0.00043715 0)
(-2.81447e-06 0.000439199 2.0116e-16)
(-0.000306376 0.000119464 0)
(0.000355633 0.000193216 0)
(1.47229e-06 0.000438058 0)
(-6.69126e-07 0.00043804 -2.01443e-16)
(-0.000305748 0.000125811 0)
(-1.59889e-06 0.000438318 4.05282e-16)
(-0.000309417 0.000117381 0)
(-6.34224e-07 0.000438309 -2.02424e-16)
(-0.000306754 0.00011962 -2.93188e-16)
(-7.54833e-07 0.000436851 0)
(-0.00030385 0.000126174 9.67044e-17)
(-0.000139568 0.000500799 -4.7138e-17)
(0.000324961 0.000150228 2.50263e-16)
(0.000339118 0.000126411 0)
(8.78239e-08 0.00043803 1.45282e-20)
(-1.71918e-06 0.000438664 -1.99394e-16)
(-0.000313882 0.000100173 -8.51766e-17)
(0.000292814 0.000131801 -2.05747e-16)
(0.000257462 0.000105755 0)
(0.000299018 0.000115317 3.10268e-16)
(-3.12469e-07 0.000438094 2.02003e-16)
(-0.000305883 0.000119844 0)
(-1.08195e-05 0.000442944 2.00568e-16)
(-3.31516e-07 0.000437043 0)
(-7.41289e-07 0.000437747 -2.04884e-16)
(-0.000307841 0.00011998 0)
(0.00030193 0.000135362 1.9527e-16)
(-0.000308878 0.000118174 2.682e-21)
(9.08538e-08 0.000436905 2.02889e-16)
(0.000305368 0.000112164 -4.19357e-16)
(4.88364e-05 0.000253915 0)
(-1.58521e-06 0.00043862 0)
(0.000339652 0.000157128 1.46627e-16)
(0.000304207 0.000104681 0)
(-3.41188e-05 0.000470262 0)
(-0.000309247 0.000116888 -3.52297e-16)
(-1.18134e-05 0.000448809 0)
(-0.000307072 0.000120195 9.75588e-17)
(-0.000260168 0.000222437 -5.25386e-17)
(-0.000305615 0.000125888 2.01115e-16)
(1.07303e-07 0.000437325 -4.04633e-16)
(-0.000313101 0.000116834 5.41581e-17)
(-0.000303801 0.000126304 1.92967e-16)
(-5.3545e-07 0.000437558 0)
(-1.03366e-06 0.000436876 -1.98253e-16)
(0.000280332 9.28223e-05 0)
(1.49856e-07 0.000437851 -2.0421e-16)
(3.00096e-07 0.000437376 0)
(-2.0634e-05 0.000454805 2.0128e-16)
(-1.50265e-06 0.000386127 -2.27208e-16)
(-0.000308601 0.000138743 1.17409e-16)
(-6.32618e-06 0.000443722 9.81751e-20)
(0.000217503 6.40488e-05 0)
(-0.000319917 0.000116104 7.99866e-17)
(-0.000303654 0.000127835 4.68861e-17)
(9.48937e-07 0.000436695 4.05023e-16)
(-1.73487e-06 0.000438363 2.01606e-16)
(-0.000313045 0.000121908 -4.66007e-16)
(2.7668e-07 0.000437487 2.02687e-16)
(0.00027274 8.28412e-05 6.49984e-21)
(-2.26438e-06 0.00043754 2.00606e-16)
(-0.000310176 0.000117879 0)
(-0.000305045 0.000122863 5.12189e-17)
(-2.16051e-07 0.000437635 -1.45937e-20)
(0.000298893 0.000152904 2.10086e-16)
(-0.000308207 0.00012067 -1.02843e-16)
(-0.00030397 0.000125714 -8.9901e-17)
(-1.10793e-06 0.000438108 -2.01528e-16)
(0.000299162 0.000117477 3.51601e-18)
(-1.95233e-08 0.000437812 -1.45976e-20)
(-0.00031165 0.000117549 4.80872e-17)
(1.39353e-06 0.000437009 0)
(-0.00030924 0.000116678 0)
(-2.56773e-06 0.000438133 -2.0147e-16)
(2.21985e-07 0.000437815 2.02269e-16)
(0.000297171 0.00012443 -2.45283e-17)
(-0.000314351 0.000109101 2.19723e-16)
(-2.33973e-06 0.000437611 1.99776e-16)
(5.3299e-07 0.000436918 0)
(-0.000306232 0.000124637 0)
(-0.000305022 0.000125715 1.53405e-16)
(-0.000316134 9.83009e-05 0)
(-1.6461e-05 0.000268692 -1.0831e-16)
(-7.98709e-08 0.00043778 2.02714e-16)
(-0.000304297 0.000125232 -1.45374e-16)
(-0.000306157 0.000121218 0)
(-0.000304966 0.000115858 5.30135e-17)
(-4.0551e-06 0.000439064 1.97011e-16)
(1.27581e-08 0.000437111 -1.46702e-20)
(-0.000307433 0.000117481 -5.14135e-17)
(0.000178084 2.14579e-05 -2.18995e-16)
(-3.9176e-06 0.000440066 -2.0043e-16)
(-1.29632e-06 0.000438285 2.02108e-16)
(5.70168e-07 0.000437217 2.02985e-16)
(-1.06582e-07 0.000438739 -2.0016e-16)
(0.000365373 0.00018602 -1.92051e-16)
(-2.6502e-06 0.000437599 -2.01113e-16)
(-0.000309576 0.000116994 0)
(-0.000309632 0.000121503 0)
(0.000298795 0.000120148 0)
(-6.82671e-07 0.000437063 -2.03574e-16)
(-0.000303855 0.000126052 2.48146e-16)
(0.000298449 0.000110356 -1.57153e-16)
(-0.000292193 0.000118829 2.71357e-16)
(-0.000307034 0.00011976 -1.96919e-16)
(-0.000307447 0.000118922 -1.01264e-16)
(-0.000331717 0.000156074 -1.00456e-16)
(-1.37391e-06 0.000437246 -4.05801e-16)
(1.18783e-06 0.000437148 8.4632e-20)
(-0.000305757 0.000127953 -5.80056e-17)
(-0.000307579 0.000122805 4.59965e-17)
(-0.000307572 0.000119272 -5.05275e-17)
(1.77838e-06 0.00043769 -2.0262e-16)
(3.32719e-07 0.000437142 4.10233e-16)
(-2.17356e-06 0.000437605 -2.02965e-16)
(3.65505e-07 0.000437595 -7.95382e-19)
(-0.000307144 0.000121258 4.91301e-17)
(-1.55825e-06 0.000437281 0)
(2.10276e-06 0.00043746 -2.03788e-16)
(1.38085e-06 0.000436991 2.02754e-16)
(1.826e-06 0.000437721 3.50549e-20)
(-0.000307224 0.000117636 1.02071e-16)
(-2.43982e-06 0.000440012 0)
(-0.000308223 0.000117211 -2.00619e-16)
(-0.000320952 0.000115176 0)
(0.000301447 0.000115052 -2.22462e-16)
(-2.08351e-07 0.000437386 -1.57908e-18)
(0.000285538 0.000117475 1.97906e-16)
(2.7777e-07 0.000437344 -1.45328e-20)
(-2.63547e-05 0.000448929 0)
(-1.78996e-05 0.00044333 -1.99275e-16)
(-0.0003087 0.000117556 0)
(-0.000310701 0.000117234 -9.86575e-17)
(3.03308e-06 0.000437099 0)
(-0.000305943 0.000118357 -2.14076e-16)
(-0.000307296 0.000120139 -1.06356e-16)
(0.000299836 0.000119834 2.13745e-16)
(1.69555e-07 0.00043732 -2.03088e-16)
(-2.5378e-06 0.000437616 -2.03164e-16)
(-0.000308831 0.00012081 5.55545e-17)
(-5.08286e-07 0.00043736 -2.00311e-16)
(-0.000304466 0.000115814 3.11591e-16)
(-2.09531e-06 0.000437191 -2.02295e-16)
(6.14985e-07 0.000437445 -1.45563e-20)
(-0.000312957 0.000141606 -2.36564e-16)
(-2.79664e-06 0.000437549 2.00633e-16)
(0.000301912 0.000113891 0)
(-0.000306876 0.000120118 -5.02518e-17)
(-1.36519e-07 0.000437297 3.18898e-18)
(-0.000309524 0.000115918 1.00777e-16)
(-7.7204e-08 0.000437134 -1.60076e-18)
(-0.000307085 0.000117845 5.04613e-17)
(-0.000294337 0.000106588 0)
(1.16845e-06 0.000437505 -1.4631e-20)
(-0.000334702 0.000141424 3.00922e-16)
(2.74815e-07 0.000437696 2.04474e-16)
(0.00028487 0.000139299 -5.87783e-17)
(-0.000304764 0.000129836 1.95208e-16)
(-8.7524e-08 0.000437401 2.0462e-16)
(0.000223336 8.89822e-05 2.15029e-16)
(-5.67178e-07 0.000437449 2.03325e-16)
(3.69702e-07 0.00043735 3.17276e-18)
(0.000255979 9.38666e-05 2.27236e-16)
(0.000273614 9.76407e-05 -2.12544e-16)
(0.000310913 0.000121157 0)
(-0.000339108 0.000138378 0)
(-2.56675e-06 0.000437503 -1.59111e-18)
(0.000284416 0.000109989 2.79976e-16)
(-2.51581e-06 0.000437209 -1.57976e-18)
(-0.00030767 0.000119266 -9.82442e-17)
(0.000284608 9.15662e-05 0)
(2.31949e-06 0.000437349 -4.05563e-16)
(3.96133e-07 0.000437335 -4.08079e-16)
(-0.000306162 0.000123571 0)
(-0.000307713 0.000117578 0)
(2.85383e-07 0.000437681 -4.05529e-16)
(-8.73795e-06 0.000441831 0)
(-0.00030416 0.000128859 -1.95483e-16)
(-5.84847e-06 0.000439838 -4.00524e-16)
(-0.000280011 0.000104491 0)
(0.000320064 9.30761e-05 5.24859e-17)
(6.99374e-09 0.000436857 -1.60743e-18)
(1.01931e-06 0.000437803 2.04315e-16)
(0.00023929 0.000149373 -7.03688e-18)
(1.24433e-07 0.000437316 -2.04797e-16)
(-0.000309493 0.000114394 1.5744e-16)
(-0.000340712 0.000155207 1.38987e-16)
(-2.76147e-06 0.000437428 2.01872e-16)
(-0.00030936 0.000115443 1.45751e-16)
(-4.79348e-07 0.000437526 2.04818e-16)
(-2.60004e-06 0.000437266 -2.0261e-16)
(-2.90738e-06 0.000437371 -2.01912e-16)
(-0.000305036 0.000124078 0)
(-0.000308458 0.000115936 -4.98691e-17)
(-3.06633e-07 0.000437254 -7.98801e-19)
(2.65416e-06 0.000437459 0)
(-0.000304601 0.000124392 1.98692e-16)
(-0.000307553 0.000116075 0)
(3.96365e-07 0.000437398 -2.03406e-16)
(-2.16532e-06 0.00043872 3.16239e-18)
(0.000299399 0.000116191 -2.14739e-16)
(4.03817e-07 0.000437358 -4.10862e-16)
(-0.000329934 0.000125132 3.41584e-16)
(-1.66674e-07 0.000437368 0)
(-1.18415e-07 0.000437411 2.02765e-16)
(-9.23845e-08 0.000437413 0)
(9.57413e-09 0.000437319 2.02825e-16)
(3.43858e-07 0.000437321 -2.02312e-16)
(0.000246509 0.000100158 1.21379e-16)
(1.11984e-07 0.000437228 2.02454e-16)
(1.9866e-07 0.000438358 -1.46604e-20)
(8.93959e-10 0.000437359 2.04807e-16)
(-3.02255e-06 0.000437441 4.04657e-16)
(-0.000308251 0.000117925 0)
(-0.000308352 0.000118267 -5.25285e-17)
(-2.64365e-06 0.000437324 0)
(-6.26459e-08 0.000437385 0)
(-3.32267e-07 0.000437183 -2.06617e-16)
(2.65283e-06 0.00043758 2.03104e-16)
(2.2158e-06 0.000437553 2.03869e-16)
(-0.000307377 0.000120484 2.57701e-16)
(2.36943e-06 0.000437378 2.033e-16)
(-1.73827e-07 0.000437522 -2.04798e-16)
(-4.11207e-07 0.000437403 0)
(-1.17829e-07 0.000437362 -1.47038e-20)
(-0.000308114 0.000118585 1.00378e-16)
(2.6277e-06 0.000437431 0)
(2.50166e-06 0.000437254 2.03442e-16)
(-1.06424e-06 0.000438205 -2.05262e-16)
(-0.000310501 0.000115724 0)
(-4.23485e-10 0.000437371 0)
(0.000302132 0.000116342 -2.13235e-16)
(-4.67886e-08 0.000437677 1.59883e-18)
(-4.00577e-08 0.000437796 -3.98549e-19)
(-2.1129e-06 0.000437003 -7.92088e-19)
(-2.94126e-06 0.000437284 1.45987e-20)
(-2.35129e-06 0.000437066 7.92736e-19)
(-0.000315103 0.000144665 -1.24099e-16)
(-2.81844e-06 0.000437032 2.03616e-16)
(1.47506e-06 0.000437508 0)
(-2.76554e-06 0.000437102 2.02168e-16)
(-2.80762e-06 0.000437198 -2.02514e-16)
(-2.96999e-06 0.000437388 -2.03454e-16)
(-0.000371655 0.000304515 -3.08473e-16)
(-7.02179e-05 8.75626e-05 -3.84302e-16)
(2.71888e-06 0.000437467 -2.03719e-16)
(-2.67349e-07 0.000437307 -2.03077e-16)
(2.88411e-08 0.000437401 -2.03031e-16)
(2.4484e-06 0.000437252 2.03503e-16)
(-0.000309731 0.000116842 -2.02478e-16)
(-3.13729e-06 0.000437223 2.02146e-16)
(-2.82835e-07 0.000437428 -2.02696e-16)
(-2.02784e-06 0.000438285 -4.03178e-16)
(-2.17408e-07 0.000437303 -1.60334e-18)
(2.90223e-06 0.000437308 2.02734e-16)
(0.000299859 0.000114815 2.1327e-16)
(-9.10358e-07 0.000437588 -2.02735e-16)
(1.68283e-07 0.000437369 -1.45879e-20)
(0.000319594 0.000131509 -2.63012e-16)
(-9.42171e-08 0.000437346 0)
(-1.77834e-07 0.000437363 0)
(-3.13094e-06 0.000437298 -4.06264e-16)
(-0.000308271 0.000118204 1.00719e-16)
(6.12076e-08 0.0004371 -4.00503e-19)
(-3.63346e-06 0.000437447 2.12282e-19)
(0.000301342 0.000114596 1.41757e-17)
(-3.33279e-06 0.000437677 2.03081e-16)
(3.30542e-06 0.000437457 2.03054e-16)
(3.03597e-06 0.000437362 -2.02906e-16)
(7.54247e-07 0.000437351 -2.03477e-16)
(-3.55226e-06 0.000437482 1.45925e-20)
(-0.000319114 0.000111604 -2.15479e-16)
(-0.000255803 9.5314e-05 2.65484e-16)
(-3.63433e-07 0.000436909 -1.46713e-20)
(-2.19136e-07 0.000437298 -2.02595e-16)
(-0.000305681 0.000124745 5.11248e-17)
(2.77831e-07 0.000437429 -1.47042e-20)
(-3.27157e-06 0.000437139 8.05167e-19)
(3.28581e-06 0.000437297 -4.06053e-16)
(1.46012e-06 0.000436868 2.03839e-16)
(2.78129e-06 0.000437185 -2.03837e-16)
(2.74149e-06 0.000437276 -2.03831e-16)
(3.28181e-06 0.000437353 2.03131e-16)
(2.72109e-06 0.000437227 1.98684e-19)
(3.26079e-06 0.000437373 0)
(0.000302222 0.000114283 0)
(-2.64485e-06 0.000437417 2.04494e-16)
(-2.16579e-07 0.000437878 0)
(5.92672e-07 0.00043772 2.03742e-16)
(3.2657e-06 0.00043735 0)
(3.24924e-06 0.000437399 2.03199e-16)
(3.29543e-06 0.000437314 -9.91939e-20)
(3.67095e-07 0.000437676 1.99369e-16)
(2.96445e-06 0.000437553 0)
(-7.7514e-07 0.000437805 0)
(-2.73114e-06 0.000437755 -2.04714e-16)
(-0.000307364 0.000119115 -2.46347e-21)
(2.88838e-06 0.000437348 0)
(-6.5344e-06 0.000444833 0)
(2.84454e-06 0.000437359 0)
(-0.000301182 0.000114756 1.57174e-16)
(2.4042e-07 0.000437336 -2.02848e-16)
(-2.04909e-06 0.000438275 2.04687e-16)
(2.97742e-06 0.00043763 -9.94075e-20)
(-0.000299751 0.000126632 5.56778e-17)
(-0.000305994 0.000123977 -5.08332e-17)
(2.60973e-06 0.000437529 -2.03825e-16)
(-7.38681e-07 0.000436686 0)
(-1.11546e-07 0.000438178 -2.03906e-16)
(2.63434e-06 0.00043757 1.46456e-20)
(3.29188e-06 0.00043728 -2.03665e-16)
(-4.68624e-07 0.000436513 4.05052e-16)
(0.000292467 9.28826e-05 -3.65603e-16)
(0.000302169 0.000117669 -4.30929e-16)
(-4.32377e-07 0.000437516 4.07262e-16)
(0.000297729 0.000116945 0)
(2.5757e-06 0.000437574 0)
(3.33651e-06 0.000437235 -3.97008e-19)
(-0.00031641 0.00012557 -1.84026e-16)
(-0.000306752 0.000125898 1.05908e-16)
(2.08383e-07 0.000437178 -1.00207e-19)
(2.59501e-06 0.000437616 2.03877e-16)
(2.90031e-07 0.000437366 -2.03136e-16)
(-0.000280215 0.000268555 1.0278e-16)
(2.4589e-06 0.00043756 7.96869e-19)
(-3.19547e-06 0.000437587 2.03307e-16)
(-2.63362e-07 0.000438 2.04077e-16)
(-0.000350537 0.000179555 -2.01506e-16)
(2.53926e-06 0.000437711 0)
(-1.81375e-07 0.00043741 4.01585e-19)
(-6.55125e-07 0.000437854 -2.03111e-16)
(-0.000308423 0.000116937 0)
(0.000318406 8.97604e-05 3.85793e-16)
(-0.000304306 0.000127496 5.36691e-17)
(2.42779e-06 0.000437608 -7.97e-19)
(3.48467e-07 0.000437507 -2.03835e-16)
(-2.84168e-06 0.000437108 -2.03662e-16)
(-0.000306923 0.00012338 3.04102e-16)
(2.44508e-06 0.000437758 -2.04095e-16)
(-3.76271e-06 0.000437267 7.93043e-19)
(1.96677e-07 0.000437168 2.00597e-19)
(3.04393e-06 0.000437258 0)
(-1.7365e-07 0.000438052 0)
(3.07601e-06 0.000437219 0)
(3.2126e-07 0.000437553 0)
(-0.000307481 0.000117131 -5.05818e-17)
(-3.3477e-06 0.0004371 0)
(-2.19031e-07 0.000437384 0)
(0.000324305 0.000153094 1.57514e-16)
(2.50233e-07 0.000437531 0)
(-1.79062e-05 0.000455078 0)
(-8.88923e-08 0.00043808 4.08021e-16)
(1.61553e-07 0.00043717 0)
(0.000299948 0.000109604 -4.81156e-17)
(0.000301278 0.000117019 0)