/*--------------------------------*- C++ -*----------------------------------*\
  =========                 |
  \\      /  F ield         | OpenFOAM: The Open Source CFD Toolbox
   \\    /   O peration     | Website:  https://openfoam.org
    \\  /    A nd           | Version:  12
     \\/     M anipulation  |
\*---------------------------------------------------------------------------*/
FoamFile
{
    format      ascii;
    class       surfaceScalarField;
    location    "0.07";
    object      phi;
}
// * * * * * * * * * * * * * * * * * * * * * * * * * * * * * * * * * * * * * //

dimensions      [0 3 -1 0 0 0 0];

internalField   nonuniform List<scalar> 
6438
(
-1.15073e-08
1.42026e-06
-1.40875e-06
-1.26258e-08
1.64976e-06
-1.63713e-06
-1.54478e-06
-2.59939e-07
1.80472e-06
1.46537e-06
-1.60756e-06
1.4219e-07
2.25673e-06
-1.76182e-06
-4.94908e-07
5.18962e-07
1.73776e-06
-1.75018e-06
2.05405e-07
-1.52462e-06
1.512e-06
1.6445e-06
-1.96619e-06
3.21691e-07
1.53105e-06
-1.79307e-06
2.62023e-07
-1.48204e-06
1.7977e-06
-3.15653e-07
3.57263e-07
-1.62717e-06
1.26991e-06
-1.82679e-06
3.44741e-07
1.40675e-06
6.47113e-07
-2.05386e-06
1.32163e-06
-1.33314e-06
-7.35377e-08
1.54732e-06
-1.47379e-06
-1.95106e-06
1.89061e-06
6.04466e-08
-1.47783e-06
1.79112e-06
-3.13292e-07
-1.82377e-06
3.45944e-07
5.80076e-07
1.23036e-06
-1.81043e-06
-4.23949e-07
-2.77573e-07
7.01522e-07
-9.09771e-08
1.62352e-06
-1.53254e-06
-1.5025e-06
-2.44673e-07
1.74717e-06
-1.83683e-06
8.07813e-07
1.02902e-06
-1.59962e-06
1.50865e-06
-1.42049e-06
1.72844e-06
-3.07954e-07
-1.72884e-06
2.26345e-07
1.64578e-06
-1.28852e-06
-1.49358e-06
-2.75242e-07
1.76882e-06
-1.80139e-06
3.80897e-07
1.38887e-06
-1.7366e-06
3.47724e-07
7.55673e-09
-1.69492e-06
1.68736e-06
1.65682e-06
-1.66475e-06
7.92856e-09
-1.64165e-06
2.77709e-07
1.36394e-06
-2.22149e-06
3.58824e-07
1.86266e-06
1.56011e-06
-1.55256e-06
1.57182e-06
-1.06447e-07
1.02123e-06
1.42853e-06
-2.44976e-06
-4.98522e-07
1.90527e-06
-1.46327e-06
1.60809e-06
-1.44813e-07
-1.6987e-06
1.68232e-06
1.6373e-08
-7.07788e-07
1.28786e-06
1.51827e-06
1.27803e-08
-1.82417e-06
1.78747e-06
3.6702e-08
1.63867e-06
-2.49799e-07
-1.21704e-06
1.1435e-06
-2.11932e-06
3.57499e-07
1.60851e-06
1.55749e-07
-1.76426e-06
-1.25684e-06
-3.84805e-07
-2.2832e-07
-1.50707e-06
1.7108e-06
-2.03729e-07
-1.1293e-06
1.62369e-06
-4.94386e-07
1.62725e-06
-1.62725e-06
5.09373e-07
1.23519e-06
1.62506e-07
-1.39769e-06
7.23556e-07
3.49402e-07
-1.07296e-06
1.37905e-06
2.83406e-07
-1.66246e-06
1.33087e-06
-5.23056e-07
-7.71668e-07
-1.34765e-06
-1.53823e-08
1.43389e-06
-1.41851e-06
-1.77026e-06
1.77026e-06
-1.83138e-06
1.84858e-06
-1.72025e-08
7.32139e-08
1.36501e-06
-1.43822e-06
5.19916e-09
-1.67147e-06
1.66627e-06
1.55059e-06
-1.54539e-06
-1.68999e-06
1.96404e-07
-1.69465e-06
-1.29524e-07
-1.45473e-06
1.59784e-06
-1.43108e-07
1.6124e-07
1.39499e-06
-1.55623e-06
-1.71291e-06
1.64758e-06
6.5335e-08
1.67037e-06
-1.67037e-06
1.55428e-06
9.02199e-08
-1.02003e-06
-7.73041e-07
1.45308e-06
3.08056e-07
-1.76113e-06
-1.42723e-06
-2.71467e-07
1.2671e-06
9.81007e-07
-2.24811e-06
-1.96397e-06
1.25618e-06
-1.25507e-06
-7.08903e-07
1.72114e-06
-2.68058e-07
1.03024e-06
-3.06684e-07
1.40074e-06
1.56776e-07
-1.55752e-06
-1.72617e-06
-1.05202e-07
-2.48119e-07
-4.20136e-07
-1.35012e-06
1.87113e-06
-1.87113e-06
-1.23948e-06
-4.73435e-07
-1.13428e-07
-2.10806e-06
-1.61404e-06
1.60848e-06
5.56785e-09
5.8105e-08
-1.63752e-06
1.57942e-06
-1.7996e-07
1.5807e-06
1.61631e-06
4.0504e-08
-1.68856e-06
-2.62495e-07
-1.70396e-06
1.74565e-06
-4.16845e-08
1.78284e-06
-9.96973e-07
-7.85871e-07
1.59821e-06
-1.54011e-06
3.35331e-08
1.79496e-06
-9.13162e-07
-8.81793e-07
1.01878e-06
7.6406e-07
1.64478e-06
-1.64478e-06
-1.26192e-06
1.80834e-06
-5.46428e-07
-1.58451e-06
7.74371e-08
-2.17283e-07
-1.2823e-06
1.49958e-06
-1.48582e-06
5.85923e-08
-1.59191e-06
3.3e-07
1.37101e-06
2.99348e-07
-1.67036e-06
-1.01672e-07
1.47269e-06
-1.43424e-06
1.65668e-06
-2.22438e-07
-1.52111e-06
5.78357e-08
1.05572e-06
7.39235e-07
1.5872e-06
-3.17292e-07
6.81413e-08
1.55911e-06
-1.36994e-06
-1.15885e-07
1.43077e-06
3.06552e-07
-1.73733e-06
-7.91653e-07
-6.83793e-07
1.47545e-06
1.04251e-06
-1.34676e-07
-9.07829e-07
-1.69492e-06
3.45715e-07
1.69398e-06
-2.03969e-06
-7.88066e-07
3.64117e-07
1.69361e-06
3.48348e-08
1.84156e-06
-9.53727e-07
-8.87829e-07
6.19318e-07
1.22224e-06
1.70777e-06
-2.76998e-07
2.09177e-06
-1.07054e-06
-1.549e-06
6.01174e-09
1.54299e-06
-2.21742e-06
2.23758e-07
1.99366e-06
-2.59937e-08
-1.5404e-06
1.5664e-06
1.69203e-06
9.54344e-08
-1.30668e-06
1.2913e-06
-1.55854e-06
1.58953e-06
-3.09888e-08
1.57901e-06
-1.605e-06
1.62968e-06
-1.62968e-06
1.60203e-06
4.77312e-08
1.60618e-06
-3.70995e-07
1.58427e-06
-1.51106e-06
-1.39552e-06
1.17824e-06
1.48921e-08
1.53852e-06
-1.55341e-06
1.81421e-06
-1.26827e-06
-5.45941e-07
-1.67147e-06
-2.45497e-08
1.91222e-08
-1.54375e-06
-1.54416e-06
8.94306e-08
1.71099e-08
1.543e-06
1.49333e-06
-1.33209e-06
-1.53969e-06
1.05445e-07
1.56125e-06
-4.29799e-08
-5.66457e-08
1.35983e-06
-1.30318e-06
1.07377e-06
7.40446e-07
-1.60081e-06
3.45599e-07
1.25521e-06
1.63065e-06
-6.9682e-09
-2.15882e-06
1.94565e-07
1.96425e-06
-2.22639e-08
-1.53241e-06
1.55467e-06
1.01786e-06
2.46455e-08
9.81674e-08
1.53249e-06
1.51706e-06
1.28725e-07
1.57002e-06
-1.59229e-06
-1.63474e-06
-5.38256e-08
1.67016e-06
-1.79725e-06
1.27089e-07
-1.49067e-06
-5.8332e-08
-1.81528e-06
7.87295e-07
1.02799e-06
-1.03724e-09
1.56852e-06
5.50024e-08
-1.47821e-06
1.71862e-06
-2.40409e-07
-1.62345e-06
1.40125e-06
2.22197e-07
-2.20455e-07
5.68644e-07
-3.48189e-07
-5.10041e-07
-1.29135e-06
-1.63752e-06
-1.32459e-08
1.56383e-06
4.82858e-07
1.32548e-06
-2.66924e-08
-1.59169e-06
-7.93196e-09
-3.41405e-08
-1.73947e-06
1.46881e-06
2.70658e-07
-1.01933e-07
1.29831e-06
2.55961e-07
2.54346e-06
-1.11493e-06
-5.36921e-07
-1.28685e-06
1.59452e-06
2.17914e-08
-1.36606e-06
5.74411e-07
-6.17625e-07
-9.69641e-07
1.58727e-06
-5.48925e-07
-1.27786e-06
-8.90159e-07
2.15726e-06
-1.64628e-06
5.45838e-08
-1.55422e-06
1.56018e-06
-5.9607e-09
-1.28028e-06
1.22364e-06
-1.89068e-08
-1.52313e-06
1.54203e-06
-1.67539e-06
2.91133e-08
1.39582e-06
-1.66052e-06
2.64704e-07
1.55633e-06
-1.57524e-06
1.38919e-06
-5.25013e-07
-8.64176e-07
-2.10332e-06
7.4866e-07
1.35466e-06
1.42423e-06
1.37012e-07
1.17518e-06
7.15436e-07
3.4324e-07
1.52789e-06
-4.10808e-07
-1.46032e-06
-1.69691e-06
1.68147e-06
1.54394e-08
-1.69212e-06
-4.79256e-09
-1.68402e-06
-8.10002e-09
6.08498e-09
4.38746e-07
-2.44977e-06
2.01102e-06
-1.81595e-06
2.16166e-06
1.43436e-06
-1.41947e-06
1.53406e-06
6.41551e-08
1.25151e-07
1.26404e-06
-1.5404e-06
-1.39623e-06
1.38985e-06
1.72641e-07
-1.56249e-06
-7.84634e-09
-3.33479e-07
2.44389e-06
-2.11042e-06
2.31752e-06
-1.67041e-06
-7.0432e-07
1.05372e-06
-4.47624e-07
-1.36766e-06
-1.2126e-06
-8.90721e-07
-1.53913e-06
-9.56103e-08
-1.55127e-06
1.55103e-06
2.34828e-10
-2.43864e-07
1.4544e-06
-1.21053e-06
-1.66711e-06
1.67857e-06
-1.14572e-08
-1.64948e-06
-1.76344e-08
-2.11844e-06
1.34178e-07
1.98426e-06
-1.47795e-06
-9.59262e-08
1.57388e-06
1.66157e-06
1.70003e-08
-2.95001e-07
-1.81335e-06
6.64828e-07
1.14852e-06
9.97926e-09
-9.59884e-07
-8.53466e-07
-2.24518e-08
-1.71169e-08
-1.5138e-06
1.53092e-06
-1.55543e-06
7.74836e-08
1.40565e-06
1.88871e-07
1.61952e-06
-1.55138e-06
1.54081e-06
-1.55792e-06
1.5349e-06
4.41028e-08
7.55278e-07
1.56224e-06
1.58967e-06
-2.91353e-07
-1.25825e-07
-2.0916e-06
-9.01642e-08
1.26476e-06
-1.1746e-06
-1.64174e-06
-7.74275e-09
-1.64142e-06
-3.1977e-10
1.65407e-06
-1.64197e-06
-1.21086e-08
1.63674e-06
1.73381e-08
-1.53241e-06
3.77974e-07
-5.17914e-07
1.3994e-07
-1.85317e-06
1.08658e-06
7.66594e-07
8.28367e-07
-1.66128e-06
8.32911e-07
-1.45007e-06
-1.34442e-07
-1.54605e-06
1.53839e-06
7.66208e-09
-1.60648e-06
1.54892e-06
5.756e-08
-1.28313e-07
1.64424e-06
-1.51593e-06
-1.5952e-06
3.97633e-08
-1.77179e-06
2.21053e-06
-1.62944e-07
-1.43786e-06
-1.66558e-06
1.53727e-06
-1.30511e-06
-1.1947e-07
1.42458e-06
-1.21753e-06
1.62649e-06
1.0243e-08
-1.11019e-06
-2.97695e-07
3.30244e-07
-3.25488e-08
-1.49223e-08
6.03488e-08
-2.11339e-06
2.05304e-06
-1.17892e-06
-5.7126e-07
-1.64755e-06
1.61503e-06
3.25246e-08
-1.62238e-06
-2.51707e-08
-5.82225e-07
3.6177e-07
1.53204e-06
3.79853e-08
1.63078e-06
-2.65772e-07
1.62155e-06
-1.62044e-06
-1.11192e-09
-4.22566e-09
-1.50195e-06
1.50617e-06
1.69877e-06
-1.21591e-06
-2.0417e-08
1.67837e-06
9.52066e-07
-2.63044e-06
1.662e-06
-1.662e-06
2.59865e-07
1.51039e-06
-5.8672e-07
-1.04053e-06
-1.32654e-06
1.59905e-06
-2.72511e-07
-1.74008e-07
-1.43248e-06
1.53293e-06
-1.53716e-06
-1.46646e-06
2.31354e-08
1.44333e-06
2.82201e-07
-1.48839e-06
1.20619e-06
-1.54133e-06
1.52486e-06
1.64638e-08
9.86604e-07
7.12169e-07
-4.78055e-08
-2.4989e-07
-9.28138e-07
-9.25036e-07
-3.59885e-07
-1.64537e-06
1.67167e-07
-1.52313e-06
1.38004e-06
2.90119e-07
-1.27829e-06
-1.43862e-06
1.33509e-07
-1.46832e-06
8.50695e-07
1.66628e-06
-1.35422e-06
-3.12059e-07
2.83645e-07
1.33588e-06
-1.17271e-06
-5.56134e-07
-1.62791e-06
1.62791e-06
1.63038e-06
-1.56839e-06
-6.19924e-08
9.2892e-08
-1.54296e-06
-1.30368e-06
1.47381e-06
-1.70137e-07
-5.14969e-07
2.37396e-07
1.5182e-06
-1.52574e-06
7.53418e-09
1.59802e-06
1.70032e-08
1.61251e-06
1.78664e-08
2.43365e-06
-1.55324e-06
-4.19563e-08
-1.3628e-06
1.11894e-06
1.52948e-06
2.68506e-08
1.60805e-06
-1.59979e-06
-8.26336e-09
-1.4331e-08
-2.24125e-08
1.6896e-07
-1.37903e-06
1.21007e-06
-4.72356e-08
-2.11158e-06
5.05226e-07
1.12082e-07
-1.41576e-06
-1.53725e-06
1.51359e-06
2.36636e-08
1.53261e-06
-1.36791e-07
-7.13261e-07
-9.51486e-07
-2.14943e-06
1.59032e-07
-8.63351e-07
-2.55523e-07
7.35147e-09
1.57912e-06
-1.40648e-06
-1.5138e-06
-1.51601e-06
3.97566e-08
1.47626e-06
2.13918e-06
3.04714e-07
1.23385e-06
6.1473e-07
1.49309e-06
-6.64723e-07
1.55719e-06
-8.83835e-08
3.58256e-06
-2.63049e-06
-2.44977e-06
-7.86364e-07
-8.37085e-07
-2.0166e-08
1.66232e-06
-1.55752e-06
-1.04799e-07
1.57678e-06
3.57292e-08
1.8251e-07
-1.50905e-06
-1.11921e-06
1.28817e-06
1.52715e-06
1.36599e-08
1.19288e-06
5.28254e-07
1.60251e-06
5.98101e-08
1.60153e-06
-1.57865e-06
-2.28727e-08
-7.23436e-07
-1.01316e-06
-7.22747e-08
1.47353e-06
2.71725e-08
-1.69754e-06
1.3277e-06
-1.04549e-06
-2.30039e-08
3.3139e-08
1.29724e-06
-1.40734e-06
1.10096e-07
2.38428e-07
1.36062e-06
2.17071e-06
-2.11036e-06
7.56364e-07
9.54438e-07
-1.53272e-06
1.51572e-06
1.70017e-08
-3.50406e-08
-8.92878e-07
4.90905e-07
4.01973e-07
-1.63655e-08
1.66401e-06
-1.66401e-06
1.88629e-06
-1.09562e-06
-7.90679e-07
-1.37283e-06
-2.34728e-07
1.15847e-06
5.49302e-07
1.59383e-06
8.68714e-09
-1.50195e-06
1.49004e-06
9.69407e-09
-1.49974e-06
1.21865e-06
1.69754e-06
-1.68736e-06
4.25808e-08
1.98193e-06
-1.75817e-06
1.53248e-06
-1.62717e-06
1.52469e-06
-3.46522e-08
1.37539e-06
-1.48999e-06
1.48255e-06
7.44175e-09
6.8104e-08
1.19634e-06
-1.26444e-06
-1.35349e-06
1.11875e-06
-1.00892e-07
1.4139e-06
1.94187e-07
-1.40112e-08
-1.31128e-06
-2.28407e-07
-1.96717e-06
1.24373e-06
4.01115e-09
-1.49468e-06
-1.59018e-06
-7.53963e-08
2.12714e-06
-1.14613e-06
1.51724e-08
-2.76347e-07
1.69186e-06
-1.41552e-06
-7.22222e-07
-1.70656e-07
1.48363e-06
-1.49912e-06
1.54899e-08
-1.53248e-06
1.52271e-06
6.60659e-07
9.41286e-07
-1.60194e-06
1.59042e-06
-2.93181e-07
1.3003e-07
1.41729e-06
1.56431e-06
1.54303e-07
1.7024e-07
2.07734e-07
-1.66627e-06
3.65943e-08
-1.32074e-06
1.50325e-06
-7.65879e-07
9.24911e-07
1.41258e-07
-1.38773e-06
1.24647e-06
-1.18435e-08
2.65567e-08
-1.38357e-06
-1.57703e-06
1.54761e-06
2.94121e-08
-1.51019e-06
1.55975e-07
9.88314e-07
8.97981e-07
-8.49227e-07
1.74079e-06
-8.91563e-07
1.74812e-06
-1.63167e-06
-1.16456e-07
4.46538e-08
1.0741e-06
-1.5001e-06
-1.59128e-08
1.52253e-06
2.16314e-09
7.49883e-07
-2.58978e-07
1.93791e-06
-1.74334e-06
1.38111e-06
2.16725e-07
8.67195e-08
-1.54569e-06
2.3441e-07
2.31373e-08
-1.34388e-06
1.72532e-06
-1.39532e-06
1.40598e-06
-8.53853e-08
-1.33889e-06
1.42428e-06
-1.51561e-06
1.57904e-06
-1.88518e-08
-2.29573e-06
1.85316e-07
-1.01058e-08
1.48655e-06
2.91709e-08
-1.40066e-06
-1.54104e-06
1.53494e-06
6.10315e-09
1.84724e-06
-1.07505e-06
-7.72186e-07
-1.29108e-06
-1.16757e-07
1.40784e-06
-3.20496e-09
-1.5194e-06
3.28344e-08
-1.65722e-07
1.62671e-06
-1.46099e-06
-1.49119e-06
1.49872e-06
-2.16568e-06
-3.1533e-07
-2.09353e-06
2.04072e-06
5.28134e-08
1.19168e-06
6.06015e-07
1.39603e-06
1.26373e-07
-1.52241e-06
1.48497e-06
-6.07354e-08
1.19422e-06
5.96902e-07
-1.06099e-06
3.38769e-07
-1.50324e-06
1.30363e-06
-1.48359e-06
-2.01635e-06
2.0091e-06
7.24498e-09
1.81823e-06
-1.45941e-06
1.48698e-06
-4.43233e-09
9.18943e-08
-1.38695e-06
1.29506e-06
-2.24317e-08
-1.99391e-06
1.80141e-06
-1.80141e-06
-8.2137e-07
1.54552e-06
-7.24147e-07
-1.48718e-06
1.48718e-06
1.52184e-06
-1.34479e-06
-1.77049e-07
1.40874e-06
3.36907e-07
1.58456e-06
-1.30092e-06
1.56866e-06
-1.76229e-08
-1.2248e-06
-1.96809e-07
1.42161e-06
-1.99198e-06
1.99892e-06
-6.94201e-09
1.84206e-06
-1.1092e-06
-7.32862e-07
2.68253e-07
1.31631e-06
-2.01283e-06
2.00266e-06
1.01681e-08
-6.08734e-10
-1.49006e-08
1.98619e-06
-1.97129e-06
-2.00543e-06
2.00543e-06
-2.39024e-08
1.50753e-06
2.15325e-06
-2.0065e-06
-1.46751e-07
-2.01417e-06
1.99927e-06
2.01217e-06
-2.00203e-06
-1.01435e-08
-1.46593e-06
-3.319e-08
1.71563e-06
-2.31801e-08
1.99907e-06
-1.97589e-06
1.99966e-06
-2.00346e-06
3.80382e-09
-1.51287e-06
1.98913e-06
-2.94013e-09
-1.53944e-06
1.52589e-06
1.35552e-08
-1.98878e-06
1.9961e-06
-7.32652e-09
1.52364e-06
-1.48388e-06
-2.00884e-06
1.98566e-06
1.54165e-06
-4.91255e-07
7.32649e-07
9.59216e-07
-1.11202e-06
-8.55146e-07
-2.00188e-06
2.00188e-06
-2.01108e-06
-3.09549e-09
1.86172e-06
-3.42438e-07
-1.51928e-06
-1.30913e-06
8.88991e-07
5.03213e-08
1.99238e-06
-1.99864e-06
6.25653e-09
1.46642e-06
-1.46609e-06
-3.26085e-10
2.05447e-06
-2.00096e-06
-5.35106e-08
1.98179e-06
1.05873e-08
1.97819e-06
2.08779e-08
-4.22289e-09
-1.48296e-06
-1.82962e-06
1.00799e-06
8.21626e-07
-1.48084e-06
1.49053e-06
1.98821e-06
-6.42088e-09
2.08475e-07
1.34872e-06
1.06903e-06
-4.08372e-07
-2.00602e-06
-2.81904e-09
1.63568e-06
9.69699e-07
-1.65349e-06
-2.53301e-07
-2.04243e-06
1.49456e-06
-1.50411e-06
9.55053e-09
-6.94608e-08
-2.02407e-06
1.55592e-06
-1.7532e-08
1.72793e-06
-1.18119e-06
-5.46746e-07
-1.49694e-06
1.99131e-06
-1.99131e-06
1.42699e-06
2.06237e-08
-1.44762e-06
1.53517e-06
-1.99554e-06
1.99288e-06
2.65913e-09
1.98116e-06
-2.0005e-06
1.93422e-08
1.25594e-06
-1.66675e-06
-5.43604e-09
-1.98145e-06
1.98688e-06
1.97685e-06
-1.98229e-06
-6.54344e-08
2.10615e-06
-1.57888e-06
1.71305e-06
-1.79442e-06
1.24549e-06
-3.15204e-08
2.04062e-06
1.71221e-07
8.825e-07
1.98895e-08
1.84183e-06
-5.35614e-09
1.5931e-06
-1.58774e-06
-1.37866e-08
-2.00025e-06
-1.25855e-08
1.64425e-06
-1.65645e-07
-1.4786e-06
-1.98697e-06
1.98697e-06
1.16332e-06
-1.00082e-06
-2.00346e-06
1.99814e-06
5.32584e-09
1.53082e-06
-1.53082e-06
1.48887e-06
-2.24528e-08
1.9897e-06
-1.99291e-06
3.20968e-09
-1.92077e-06
5.24538e-07
8.55694e-10
-1.47836e-06
1.4775e-06
1.60294e-06
-1.34123e-08
1.99368e-06
1.84937e-08
1.20978e-06
2.06083e-07
-1.41586e-06
1.99996e-06
-1.08252e-08
1.556e-06
-1.556e-06
1.98728e-06
-1.98026e-06
-7.02172e-09
-1.52109e-06
1.50904e-06
1.20501e-08
2.00235e-06
-1.99633e-06
-6.02631e-09
-1.99035e-06
1.99035e-06
2.98403e-07
1.39488e-06
4.71836e-08
-1.44207e-06
-2.00363e-06
1.99834e-06
5.28812e-09
-7.61827e-09
-1.50146e-06
1.49282e-06
1.74611e-09
1.86159e-06
-3.49143e-07
-1.51244e-06
1.28688e-06
1.98222e-06
-1.98773e-06
5.51387e-09
1.53355e-06
1.63565e-06
2.30302e-08
1.40396e-06
2.0327e-06
-3.90237e-08
1.97555e-06
6.67057e-09
1.45496e-06
-1.45496e-06
-7.65879e-07
2.01027e-06
-1.99438e-06
-6.12159e-09
1.9935e-06
-1.98604e-06
-7.46473e-09
3.94487e-08
-2.03155e-06
1.9921e-06
2.09616e-07
-2.01102e-06
-1.99998e-06
1.99649e-06
3.49843e-09
1.44402e-06
-1.44325e-06
-7.72671e-10
1.52184e-06
-1.34296e-06
1.34296e-06
1.97963e-06
-4.07986e-09
-1.48422e-06
-1.38695e-06
1.39603e-06
1.54126e-06
-1.63919e-08
-4.58029e-09
1.57937e-07
-1.96599e-06
1.99306e-06
-1.99382e-06
7.58128e-10
4.66726e-08
1.39735e-06
4.6608e-08
1.59764e-06
1.49941e-06
-1.0533e-08
-1.99567e-06
1.99324e-06
2.42863e-09
1.97797e-06
-1.98375e-06
5.78747e-09
-1.99363e-06
-9.82976e-09
1.98838e-06
-1.98304e-06
-5.34004e-09
1.50197e-06
2.88421e-08
1.9894e-06
8.73455e-09
-2.60635e-09
1.98512e-06
8.11753e-09
-3.19622e-10
-1.47145e-06
-2.01537e-06
2.14598e-08
-1.49151e-06
1.49151e-06
1.99859e-08
1.8416e-06
-1.51566e-06
2.90855e-07
1.06684e-08
1.98899e-06
8.32765e-08
-1.43742e-06
1.35414e-06
1.42274e-08
1.99121e-06
1.89995e-06
-2.07193e-06
1.50199e-06
5.40046e-08
1.97685e-06
-1.51485e-08
1.41003e-06
-1.44954e-06
6.29542e-09
1.42906e-06
-2.1928e-07
-1.98181e-06
1.98181e-06
-1.99235e-06
-1.12766e-08
1.34479e-06
-1.39327e-06
4.84819e-08
-1.99121e-06
1.46645e-06
-1.4656e-06
1.9884e-06
9.93718e-09
-1.98923e-06
-1.7712e-06
1.23428e-06
-1.99799e-06
1.99461e-06
3.37662e-09
1.35631e-06
1.28658e-07
1.47836e-06
8.82767e-09
-1.97528e-06
1.98903e-06
-1.37514e-08
-1.50331e-06
1.49025e-06
1.30609e-08
-1.98158e-06
6.30541e-09
1.49526e-06
-2.44509e-09
8.14084e-08
-1.54393e-06
1.46253e-06
1.98122e-06
-1.99012e-06
8.90362e-09
1.61197e-06
-1.68736e-06
1.98097e-06
-1.98076e-06
-2.19197e-10
-1.26363e-06
1.26363e-06
-1.55891e-06
1.55891e-06
-1.97866e-06
-2.91806e-09
-9.24911e-07
1.09613e-06
-1.98443e-06
1.98149e-06
2.93766e-09
1.5768e-08
1.98611e-06
1.23739e-06
-1.09613e-06
-1.23739e-06
1.30549e-06
1.31109e-06
-1.5079e-06
1.81621e-06
-1.07434e-06
-7.41869e-07
-1.99146e-06
-8.52445e-09
-2.85993e-07
-1.30549e-06
1.59149e-06
1.98891e-06
7.57972e-09
-1.50779e-06
1.39437e-06
1.99477e-06
-1.99071e-06
-4.06712e-09
-1.98287e-06
-1.49424e-06
1.50322e-06
-4.82614e-08
-5.38398e-09
1.9936e-06
1.98501e-06
-1.4775e-06
-2.03248e-06
-1.19407e-06
1.52241e-06
-3.28342e-07
-1.9742e-06
-7.25033e-09
1.98263e-06
2.49526e-09
1.15605e-06
-1.18202e-06
2.59691e-08
2.31008e-09
1.39327e-06
-1.4494e-06
5.61266e-08
9.19894e-07
9.27343e-07
-1.99058e-06
-7.41349e-09
-1.50939e-06
1.97391e-06
-1.97223e-06
-1.68344e-09
1.98813e-06
6.4818e-09
-1.994e-06
1.99182e-06
2.18023e-09
1.5255e-06
1.50197e-06
-1.97903e-06
1.9746e-06
4.42531e-09
1.99299e-06
-1.99208e-06
-9.08762e-10
-1.48332e-06
1.50199e-06
1.97808e-06
-1.97808e-06
8.01482e-09
1.99465e-06
-1.2487e-06
-2.66959e-07
1.98213e-06
-9.14855e-10
-2.53732e-07
1.35333e-06
-1.09959e-06
1.97711e-06
-1.97541e-06
-1.70649e-09
6.11008e-09
1.9852e-06
1.97348e-06
-1.97529e-06
1.80965e-09
-1.9967e-06
-1.98943e-06
-1.19916e-06
1.77227e-09
1.9911e-06
-2.23953e-09
-1.9845e-06
1.98674e-06
-1.9782e-06
1.97383e-06
4.36379e-09
-1.99051e-06
-3.49461e-09
-1.50666e-06
-1.45623e-06
6.68566e-09
1.98841e-06
3.40658e-09
-1.97639e-06
1.97555e-06
8.39249e-10
-1.97773e-06
7.54235e-09
1.97019e-06
1.98993e-06
4.8466e-09
-1.98372e-06
-6.98501e-09
-1.4482e-06
-6.75866e-09
1.98897e-06
-1.99017e-06
1.20177e-09
1.97754e-06
-1.97978e-06
-1.98124e-06
1.9785e-06
2.74655e-09
1.97628e-06
-1.97468e-06
-1.59936e-09
1.49036e-06
1.15261e-09
1.98959e-06
3.39331e-09
-1.98678e-06
-5.30097e-09
-1.99401e-06
1.50322e-06
-1.97736e-06
1.97338e-06
3.98274e-09
1.31272e-06
-1.3981e-06
-1.97178e-06
1.97923e-06
-7.4472e-09
1.97796e-06
-1.98094e-06
2.98193e-09
-4.97761e-09
-1.98854e-06
-1.96286e-09
-5.23174e-09
-1.75631e-06
1.24627e-06
-3.4435e-09
1.97754e-06
-3.32949e-09
-2.16062e-09
-1.99026e-06
1.71619e-09
7.63109e-07
1.6713e-06
-2.43441e-06
-4.11985e-07
1.98893e-06
3.11826e-11
-1.9852e-06
3.75011e-09
1.98322e-06
-1.98635e-06
-3.81586e-09
-1.49541e-06
-1.99226e-06
1.99842e-09
7.12241e-09
1.98258e-06
-2.90272e-10
9.53091e-09
-1.95863e-06
1.9491e-06
1.99172e-06
-1.99071e-06
-1.01208e-09
-1.5219e-06
2.73197e-07
1.98789e-06
-1.98442e-06
-3.4765e-09
-1.98916e-06
-1.47534e-06
-7.80737e-08
1.97588e-06
-1.9743e-06
-1.5726e-09
1.04773e-08
-1.96048e-06
1.95001e-06
-1.99122e-06
1.98748e-06
3.74367e-09
-1.50603e-06
1.49316e-06
1.28651e-08
1.70081e-09
-1.99117e-06
-1.08396e-09
-1.51581e-06
3.14423e-07
1.20138e-06
-1.98861e-06
-2.61454e-09
1.99104e-06
6.87689e-10
-1.98776e-06
-2.9571e-09
-8.06991e-09
-1.99131e-06
1.39982e-10
-1.43256e-06
-1.64241e-07
1.5968e-06
1.14516e-06
8.43166e-09
-1.98322e-06
1.49402e-06
-3.77181e-09
-1.9758e-06
1.9758e-06
-3.83841e-09
1.99009e-06
9.42674e-10
-1.5878e-09
3.15142e-09
3.24127e-09
1.99084e-06
-7.46221e-10
1.17891e-09
1.99033e-06
-1.99034e-06
6.68738e-12
1.43658e-06
-1.43658e-06
-1.98624e-06
1.98192e-06
4.32031e-09
1.97915e-06
-1.97713e-06
-2.01563e-09
-2.84139e-09
1.9896e-06
1.23848e-09
1.98969e-06
6.41206e-10
-7.33374e-10
1.98977e-06
1.98797e-06
-1.98905e-06
1.07468e-09
-2.00715e-06
-1.98159e-06
-4.65009e-09
1.53245e-06
-1.88609e-08
1.98619e-06
1.78684e-09
1.65504e-08
1.9877e-06
-1.98548e-06
-2.21743e-09
-1.42028e-06
1.42028e-06
1.13209e-08
1.97903e-06
-1.97544e-06
1.97864e-06
-3.20294e-09
1.98727e-06
4.29357e-10
1.18117e-08
1.48759e-06
1.98493e-06
-1.98413e-06
-7.94695e-10
-1.96919e-06
-6.24861e-09
1.97947e-06
-1.98109e-06
1.61267e-09
1.98362e-06
1.30859e-09
1.98726e-06
2.43154e-09
-1.96132e-08
-1.96489e-06
-2.81836e-09
-1.75205e-07
-1.33384e-06
1.97622e-06
-1.97814e-06
1.92397e-09
5.90176e-08
1.37757e-06
1.98469e-06
-1.98278e-06
-1.90596e-09
-1.79069e-09
-3.47349e-08
-1.64828e-06
1.68301e-06
-1.43754e-06
1.4541e-06
-1.6566e-08
-1.96688e-06
1.96753e-06
-6.53056e-10
1.98236e-06
2.33166e-09
-1.97641e-06
-1.23397e-06
1.99708e-06
1.98318e-06
-1.98031e-06
-2.86928e-09
-1.98505e-06
1.9851e-06
-4.44105e-11
1.97949e-06
-1.9777e-06
-1.78291e-09
-1.93107e-07
-1.69807e-06
1.89117e-06
1.9811e-06
2.08045e-09
-1.96845e-06
1.57695e-09
1.98348e-06
-1.98095e-06
-2.53168e-09
1.49036e-06
-1.52531e-06
1.52531e-06
1.98273e-06
-1.97894e-06
-3.79607e-09
-3.88771e-09
1.98352e-06
-3.13041e-09
-1.49237e-06
1.97987e-06
2.86577e-09
-1.98485e-06
-3.75267e-09
-1.96536e-06
1.96643e-06
-1.07021e-09
1.98508e-06
1.10529e-09
3.40124e-08
1.96491e-06
-4.02824e-10
1.98333e-06
5.05099e-09
1.48656e-06
7.45594e-09
2.44201e-10
-1.96737e-06
2.0102e-09
1.51372e-07
5.59932e-09
6.37237e-08
1.97766e-06
-1.97951e-06
1.84412e-09
-1.96327e-06
1.96559e-06
-2.31691e-09
3.62152e-08
-1.48914e-06
1.45293e-06
2.65998e-07
-1.54978e-06
1.28379e-06
5.63332e-07
1.40617e-06
-1.40617e-06
1.97621e-06
-1.97621e-06
-1.6203e-06
9.03377e-10
-1.97993e-06
1.51683e-06
1.98276e-06
4.5085e-09
-3.72744e-07
-6.95462e-07
1.06821e-06
-1.9662e-06
2.93008e-09
-1.96711e-06
-6.4439e-08
8.40613e-07
-1.3863e-06
5.45685e-07
-1.37204e-09
1.35702e-08
1.96566e-06
3.79045e-09
1.49147e-06
-1.9857e-06
4.20345e-09
1.9776e-06
1.2616e-06
-1.53956e-06
2.77956e-07
1.28359e-06
-4.42976e-07
-2.4924e-09
-1.9757e-06
1.98606e-06
-1.97249e-06
-1.98023e-06
-1.96068e-06
1.95879e-06
1.88225e-09
4.75831e-10
1.98102e-06
1.97414e-06
2.07463e-09
1.80392e-06
-1.19803e-06
-6.05889e-07
-5.79263e-09
1.50779e-06
1.98044e-06
3.17986e-09
1.80382e-06
-1.99693e-06
1.3569e-08
1.96558e-06
-2.34821e-09
-1.97502e-06
-1.96304e-06
2.3645e-09
-1.4411e-06
3.56653e-09
1.51512e-06
-1.21502e-06
-3.00106e-07
1.97058e-06
-1.97073e-06
1.47878e-10
-2.34454e-09
5.68644e-07
-7.9932e-07
-7.48147e-07
1.54747e-06
1.97434e-06
-1.97735e-06
3.01413e-09
1.56701e-06
-1.54639e-06
-4.68839e-09
1.50666e-06
-1.29338e-06
9.20637e-07
1.97231e-06
-1.97427e-06
1.96152e-09
1.98374e-06
-1.97017e-06
-1.48679e-06
5.02033e-08
-1.4921e-06
1.48958e-06
2.52711e-09
1.4494e-06
-1.48414e-06
3.18861e-08
1.96422e-06
-1.50747e-06
1.45882e-06
-5.31661e-08
1.98057e-06
-1.97817e-06
-2.40453e-09
1.5414e-06
-1.47335e-06
-6.8044e-08
1.97414e-06
-1.20088e-09
-1.97519e-06
-1.46079e-06
4.56566e-09
1.83496e-07
1.1214e-06
-1.3049e-06
-1.95817e-06
1.95602e-06
2.14939e-09
1.97094e-06
7.01989e-09
-1.24764e-06
-2.60259e-07
1.4542e-08
1.96495e-06
1.97717e-06
-1.98187e-06
4.69943e-09
1.97481e-06
-3.62696e-09
-1.9686e-06
-1.53848e-06
-2.60293e-07
1.9782e-06
4.16147e-09
2.10473e-06
-4.33435e-07
-1.22275e-08
1.97639e-06
-1.96416e-06
1.97533e-06
1.83979e-09
-1.96103e-06
2.8653e-09
-1.96641e-06
-1.43458e-08
-3.72803e-09
1.94985e-06
-1.94613e-06
2.59059e-09
1.97549e-06
1.98401e-06
-1.96947e-06
-1.9776e-06
-6.16733e-09
1.50939e-06
-2.11616e-09
1.49581e-06
-7.56328e-08
-1.42018e-06
2.04462e-08
1.47536e-06
-1.95269e-06
1.94896e-06
-1.97726e-06
-4.33042e-09
1.2552e-06
2.59921e-07
-7.20895e-09
1.52936e-06
-1.52216e-06
-1.26629e-06
-1.05947e-06
1.24297e-06
-1.65116e-06
2.05915e-07
1.44525e-06
1.97462e-06
1.52996e-09
-1.97694e-06
1.98864e-08
1.96617e-06
1.9717e-06
-1.97201e-06
3.05743e-10
1.97601e-06
-1.9701e-06
-5.91171e-09
-1.97865e-06
1.38209e-09
-2.89601e-09
-1.49357e-06
1.49647e-06
3.12189e-10
1.97818e-06
-1.37172e-06
4.02082e-07
-1.97615e-06
1.975e-06
1.15318e-09
-1.95541e-06
1.95304e-06
2.36849e-09
1.9213e-08
1.61178e-06
-1.56459e-06
1.18535e-06
-2.93023e-08
-1.04713e-08
1.97751e-06
-1.96703e-06
-1.76201e-06
9.62693e-07
1.97393e-06
1.74941e-09
-1.97643e-06
1.97593e-06
5.16803e-09
-1.84602e-06
1.76389e-08
1.82838e-06
3.16146e-09
-1.95857e-06
1.97211e-06
-1.97004e-06
-2.0699e-09
-6.29475e-08
1.98404e-06
-1.92109e-06
-3.00227e-09
-4.06668e-07
1.857e-06
-1.45033e-06
-1.48679e-06
-1.636e-06
1.97335e-06
-1.03822e-09
1.75598e-08
1.96618e-06
1.92524e-06
1.99237e-06
-1.99151e-06
-8.5912e-10
1.04076e-09
-1.49798e-06
1.49694e-06
-1.97453e-06
1.97318e-06
1.35014e-09
4.03349e-08
-1.48854e-06
1.4482e-06
1.97712e-06
-1.97635e-06
-7.71711e-10
-1.53097e-06
1.52376e-06
1.97132e-06
-1.96979e-06
-1.53387e-09
5.55599e-09
1.97046e-06
-2.42499e-08
1.98177e-06
-1.97568e-06
1.79331e-08
-1.45616e-06
1.9757e-06
-1.97533e-06
-3.61035e-10
1.97468e-06
1.14932e-09
-1.97545e-06
1.96454e-06
4.12416e-09
-1.96866e-06
4.79075e-10
1.97593e-06
-1.97037e-06
-4.95506e-09
-1.49656e-06
1.50151e-06
1.06208e-06
-1.56172e-06
4.99637e-07
-3.28762e-07
-1.51725e-06
-1.45341e-06
-3.24215e-07
-1.27356e-06
-1.97352e-06
1.15371e-08
1.96198e-06
-1.50551e-06
1.49656e-06
8.94835e-09
-4.57411e-07
-1.20934e-06
-1.97239e-06
1.76154e-06
-1.96834e-06
1.97184e-06
-3.50788e-09
-1.6438e-06
1.62496e-07
1.4813e-06
1.57378e-06
-1.20856e-06
-3.65217e-07
-1.97534e-06
4.01902e-09
1.97132e-06
1.49917e-06
-1.48005e-06
4.18747e-09
1.96793e-06
-1.97549e-06
2.03293e-09
1.97377e-06
1.97338e-06
6.4869e-09
-3.39298e-10
-1.97495e-06
-6.54804e-09
-1.9696e-06
-1.97034e-06
1.49778e-06
-1.48014e-06
-8.49183e-09
4.22494e-07
1.30544e-06
-1.34725e-06
1.34725e-06
1.73219e-08
1.96669e-06
-2.23922e-06
-1.82251e-06
1.82355e-06
1.97613e-06
1.49627e-06
-1.48477e-06
-1.97319e-06
1.96664e-06
-1.66835e-06
1.70868e-06
1.97175e-06
-1.97002e-06
-1.7308e-09
2.4415e-09
1.97378e-06
-1.99688e-06
1.50247e-06
-1.50743e-06
-1.97255e-06
3.36115e-09
7.44125e-07
1.97743e-06
-1.97503e-06
-2.40201e-09
-1.97611e-06
1.97186e-06
-1.97022e-06
-1.64366e-09
-1.97156e-06
-1.96435e-09
1.96724e-06
-1.9612e-06
-1.5078e-06
1.81436e-06
1.97014e-06
-1.96952e-06
-6.23213e-10
-3.49654e-09
1.96804e-06
-1.50551e-06
1.30543e-06
-1.41391e-06
1.08482e-07
-2.43036e-06
2.43036e-06
1.97521e-06
1.97558e-06
-5.02227e-09
3.36749e-09
-1.97483e-06
1.98193e-06
-7.09888e-09
1.97125e-06
-1.96959e-06
-1.66116e-09
-1.63568e-06
1.55761e-06
6.20116e-09
1.97019e-06
-1.97527e-06
5.38586e-09
1.96989e-06
-1.96941e-06
1.97365e-06
-1.97101e-06
-1.5126e-06
-1.97364e-06
6.67057e-09
1.96697e-06
-1.51445e-06
-4.33364e-09
1.47832e-06
-1.48907e-06
1.07525e-08
1.96866e-06
-1.97032e-06
1.65673e-09
3.72127e-08
-1.97362e-06
1.97031e-06
3.30587e-09
1.97276e-06
-1.44675e-06
-1.43693e-06
-2.38643e-08
1.97491e-06
-1.97491e-06
-1.00635e-08
1.50042e-06
-1.97377e-06
1.97088e-06
-1.96922e-06
-1.66034e-09
1.97453e-06
-1.1094e-08
-1.97195e-06
-1.46859e-06
-1.79685e-07
-1.50865e-06
1.17883e-06
-1.31715e-06
1.38325e-07
-2.9428e-07
-1.27466e-06
1.56894e-06
1.96719e-06
-1.96195e-06
1.2795e-06
-1.48914e-06
-4.32331e-09
-1.97101e-06
1.97196e-06
-1.97032e-06
-1.63875e-09
1.51518e-06
-1.52311e-06
-4.1593e-07
-2.75852e-07
6.91782e-07
-1.57107e-06
1.58385e-06
1.52087e-06
-1.50042e-06
-5.93324e-09
-1.47483e-06
1.48077e-06
-7.82434e-09
-1.4633e-06
1.47113e-06
5.00469e-09
-1.53592e-06
1.53091e-06
1.41164e-08
-1.54159e-06
1.52747e-06
7.35689e-09
-1.50959e-06
1.50223e-06
-2.54388e-09
-1.47809e-06
1.48063e-06
-2.34036e-09
-1.47701e-06
1.47935e-06
8.87588e-07
-5.98147e-07
-2.89441e-07
1.3105e-06
9.79287e-09
1.96771e-06
1.4428e-06
-1.4526e-06
9.80027e-09
4.63494e-09
-1.97116e-06
1.96653e-06
1.97633e-06
-1.97633e-06
1.95015e-06
-2.08482e-10
-1.94994e-06
-6.72525e-09
-1.96646e-06
1.97074e-06
-1.96901e-06
-1.72679e-09
-1.22495e-06
-1.60818e-06
-3.56237e-08
1.29224e-06
2.49155e-07
1.97479e-06
-1.97201e-06
-2.77679e-09
-1.50318e-06
1.56362e-06
6.60775e-09
1.96932e-06
-1.08424e-06
-6.77777e-07
1.53236e-08
1.41399e-06
-1.42931e-06
-1.01004e-06
-1.71984e-07
-3.38848e-07
-2.0867e-07
5.47518e-07
1.48421e-06
1.48444e-06
1.54901e-06
1.54929e-06
1.53855e-06
1.51768e-06
-7.01576e-09
-1.48732e-06
1.49434e-06
1.48877e-06
-2.20796e-09
-5.84428e-07
1.97138e-06
-1.96675e-06
-4.91124e-08
1.58638e-06
-1.97707e-06
-1.34918e-06
1.67087e-06
1.94788e-06
1.21217e-09
-1.94909e-06
1.97894e-06
-4.03474e-09
-1.97466e-06
7.17564e-09
1.96749e-06
-1.48867e-06
-1.49357e-06
1.49322e-06
-1.50023e-06
-1.35875e-06
1.63977e-06
-2.81022e-07
-3.55661e-09
-1.97009e-06
1.0301e-06
-1.28383e-06
3.25028e-09
-1.97329e-06
-1.97093e-06
-5.24073e-07
-7.69307e-07
-1.96742e-06
-3.74165e-09
1.51089e-06
4.71657e-07
1.1522e-06
1.96881e-06
-1.96728e-06
-1.52371e-09
1.4997e-06
-9.92162e-07
-5.07534e-07
-7.14835e-07
3.75987e-07
-8.29158e-07
1.79185e-06
-7.18193e-07
1.49236e-06
-7.74171e-07
7.44504e-10
1.97359e-06
-1.96003e-06
1.97018e-06
-1.97133e-06
1.14749e-09
-1.11561e-06
4.7513e-07
6.40485e-07
-6.50831e-09
-1.48695e-06
1.49346e-06
2.06313e-06
-9.11691e-07
-1.15144e-06
1.37449e-09
1.94877e-06
-4.29236e-07
-6.86379e-07
-1.44003e-06
1.45535e-06
1.22945e-06
8.10568e-08
-1.43333e-06
-2.95482e-09
-1.48859e-06
1.49155e-06
1.53658e-06
-1.48991e-06
-9.1425e-07
-3.47785e-07
1.26204e-06
-1.96723e-06
1.9678e-06
-5.74944e-10
-1.45323e-06
1.47117e-06
1.9693e-06
-1.97059e-06
-1.31652e-06
-3.07313e-08
-1.9841e-06
1.97663e-06
-1.02738e-06
1.47735e-09
1.97037e-06
1.71778e-06
-9.49309e-07
-7.68475e-07
1.45258e-06
-2.73749e-07
1.62564e-06
-2.11651e-07
1.49112e-06
-1.49763e-06
1.96672e-06
-1.96674e-06
2.68432e-11
1.49208e-06
-1.49504e-06
1.80826e-09
-1.96564e-06
1.96383e-06
-8.28771e-07
-1.98612e-07