/*--------------------------------*- C++ -*----------------------------------*\
  =========                 |
  \\      /  F ield         | OpenFOAM: The Open Source CFD Toolbox
   \\    /   O peration     | Website:  https://openfoam.org
    \\  /    A nd           | Version:  12
     \\/     M anipulation  |
\*---------------------------------------------------------------------------*/
FoamFile
{
    format      ascii;
    class       surfaceScalarField;
    location    "0.22";
    object      phi;
}
// * * * * * * * * * * * * * * * * * * * * * * * * * * * * * * * * * * * * * //

dimensions      [0 3 -1 0 0 0 0];

internalField   nonuniform List<scalar> 
6438
(
-3.57422e-08
4.46353e-06
-4.42779e-06
-3.87017e-08
5.18541e-06
-5.14671e-06
-4.86491e-06
-8.27761e-07
5.69267e-06
4.61511e-06
-5.06659e-06
4.5148e-07
7.08953e-06
-5.53922e-06
-1.55031e-06
1.60335e-06
5.48618e-06
-5.53187e-06
6.66963e-07
-4.79259e-06
4.75389e-06
5.18108e-06
-6.18342e-06
1.00234e-06
4.81232e-06
-5.64515e-06
8.32827e-07
-4.65325e-06
5.66362e-06
-1.01037e-06
1.11629e-06
-5.09851e-06
3.98221e-06
-5.7671e-06
1.11385e-06
4.42241e-06
2.03098e-06
-6.45339e-06
4.15613e-06
-4.19187e-06
-2.35071e-07
4.87092e-06
-4.63585e-06
-6.13681e-06
5.95224e-06
1.84576e-07
-4.64634e-06
5.64507e-06
-9.98731e-07
-5.76572e-06
1.11937e-06
1.83007e-06
3.8652e-06
-5.69527e-06
-1.33242e-06
-8.70361e-07
2.20278e-06
-2.83194e-07
5.10081e-06
-4.81762e-06
-4.73289e-06
-7.66392e-07
5.49928e-06
-5.79605e-06
2.54079e-06
3.25526e-06
-5.02487e-06
4.74168e-06
-4.46252e-06
5.42452e-06
-9.61997e-07
-5.46215e-06
7.29258e-07
5.17148e-06
-4.05519e-06
-4.69793e-06
-8.82718e-07
5.58065e-06
-5.68632e-06
1.2238e-06
4.34869e-06
-5.47182e-06
1.12312e-06
2.40169e-08
-5.32591e-06
5.30189e-06
5.21266e-06
-5.24505e-06
3.23901e-08
-5.16481e-06
8.67042e-07
4.29777e-06
-6.97292e-06
1.12936e-06
5.84356e-06
4.90421e-06
-4.8802e-06
4.94929e-06
-3.34185e-07
3.21068e-06
4.49805e-06
-7.70872e-06
-1.59413e-06
6.01653e-06
-4.60558e-06
5.0609e-06
-4.55317e-07
-5.33674e-06
5.28856e-06
4.8183e-08
-2.21485e-06
4.04492e-06
4.77091e-06
4.14079e-08
-5.73585e-06
5.61873e-06
1.17119e-07
5.13418e-06
-7.85492e-07
-3.8673e-06
3.63223e-06
-6.66864e-06
1.12942e-06
5.07141e-06
4.87473e-07
-5.55889e-06
-3.9347e-06
-1.23011e-06
-7.24636e-07
-4.74302e-06
5.38188e-06
-6.3886e-07
-3.52539e-06
5.09227e-06
-1.56688e-06
5.11645e-06
-5.11645e-06
1.6088e-06
3.88009e-06
5.10136e-07
-4.39022e-06
2.27735e-06
1.10891e-06
-3.38626e-06
4.33172e-06
9.14938e-07
-5.24666e-06
4.18401e-06
-1.64322e-06
-2.42574e-06
-4.2429e-06
-5.05595e-08
4.51107e-06
-4.46051e-06
-5.56302e-06
5.56302e-06
-5.76416e-06
5.82435e-06
-6.01842e-08
2.33349e-07
4.28334e-06
-4.51669e-06
1.58558e-08
-5.249e-06
5.23315e-06
4.87144e-06
-4.85559e-06
-5.31197e-06
6.14037e-07
-5.32533e-06
-4.10518e-07
-4.58104e-06
5.03623e-06
-4.5519e-07
5.06616e-07
4.38593e-06
-4.89255e-06
-5.38693e-06
5.1804e-06
2.06538e-07
5.25069e-06
-5.25069e-06
4.87829e-06
3.0279e-07
-3.2058e-06
-2.43935e-06
4.57363e-06
9.63996e-07
-5.53763e-06
-4.48573e-06
-8.5101e-07
3.98535e-06
3.07839e-06
-7.06374e-06
-6.17075e-06
3.9559e-06
-3.93625e-06
-2.2345e-06
5.43978e-06
-8.66143e-07
3.23986e-06
-9.62505e-07
4.40196e-06
5.04668e-07
-4.90662e-06
-5.42835e-06
-3.35816e-07
-7.66789e-07
-1.32247e-06
-4.24055e-06
5.88531e-06
-5.88531e-06
-3.88912e-06
-1.49781e-06
-3.52307e-07
-6.62062e-06
-5.078e-06
5.05748e-06
2.05199e-08
1.82862e-07
-5.1422e-06
4.95933e-06
-5.65198e-07
4.96716e-06
5.08263e-06
1.30023e-07
-5.30939e-06
-8.27424e-07
-5.36229e-06
5.49968e-06
-1.37395e-07
5.59341e-06
-3.1308e-06
-2.46261e-06
5.02035e-06
-4.83749e-06
1.02398e-07
5.62818e-06
-2.86425e-06
-2.76393e-06
3.20269e-06
2.39072e-06
5.16709e-06
-5.16709e-06
-3.96298e-06
5.68598e-06
-1.723e-06
-4.98114e-06
2.38128e-07
-6.80914e-07
-4.0349e-06
4.71582e-06
-4.66816e-06
1.82428e-07
-5.00301e-06
1.04003e-06
4.31723e-06
9.53457e-07
-5.27068e-06
-2.9897e-07
4.6162e-06
-4.50843e-06
5.20913e-06
-7.00694e-07
-4.79074e-06
1.85155e-07
3.30036e-06
2.32782e-06
4.98818e-06
-1.00597e-06
2.14284e-07
4.90216e-06
-4.3059e-06
-3.62265e-07
4.50244e-06
9.57962e-07
-5.4604e-06
-2.48869e-06
-2.14773e-06
4.63642e-06
3.27724e-06
-4.12246e-07
-2.86499e-06
-5.32591e-06
1.08009e-06
5.34118e-06
-6.42127e-06
-2.47536e-06
1.14294e-06
5.32781e-06
9.67026e-08
5.7732e-06
-2.98792e-06
-2.78528e-06
1.93279e-06
3.84041e-06
5.3935e-06
-8.91058e-07
6.578e-06
-3.36733e-06
-4.87418e-06
1.30074e-08
4.86118e-06
-6.97036e-06
7.12912e-07
6.25744e-06
-7.97164e-08
-4.83845e-06
4.91817e-06
5.32272e-06
2.96015e-07
-4.10492e-06
4.05436e-06
-4.89807e-06
4.99665e-06
-9.85726e-08
4.95959e-06
-5.0393e-06
5.11734e-06
-5.11734e-06
5.0408e-06
1.44612e-07
5.05041e-06
-1.17033e-06
4.98239e-06
-4.74904e-06
-4.38865e-06
3.70773e-06
4.4978e-08
4.83601e-06
-4.88099e-06
5.68497e-06
-3.98442e-06
-1.70055e-06
-5.249e-06
-7.52228e-08
5.87991e-08
-4.85139e-06
-4.8628e-06
2.8176e-07
5.60684e-08
4.84815e-06
4.69176e-06
-4.18514e-06
-4.83866e-06
3.30231e-07
4.90948e-06
-1.38566e-07
-1.751e-07
4.27208e-06
-4.09698e-06
3.35993e-06
2.32504e-06
-5.03195e-06
1.07971e-06
3.95224e-06
5.1283e-06
-3.6034e-08
-6.7827e-06
6.17934e-07
6.16476e-06
-6.8452e-08
-4.81293e-06
4.88138e-06
3.19933e-06
7.79031e-08
3.05569e-07
4.82273e-06
4.77358e-06
3.97902e-07
4.93053e-06
-4.99898e-06
-5.13813e-06
-1.71257e-07
5.24054e-06
-5.62972e-06
3.89184e-07
-4.68633e-06
-1.87854e-07
-5.70306e-06
2.47259e-06
3.23047e-06
2.47971e-09
4.93087e-06
1.69944e-07
-4.64026e-06
5.39597e-06
-7.55703e-07
-5.11695e-06
4.40645e-06
7.10502e-07
-6.9166e-07
1.78755e-06
-1.09589e-06
-1.60339e-06
-4.08293e-06
-5.1422e-06
-4.05622e-08
4.91201e-06
1.50474e-06
4.18124e-06
-8.1918e-08
-5.00129e-06
-2.35813e-08
-1.05631e-07
-5.46813e-06
4.62103e-06
8.47098e-07
-3.21495e-07
4.07466e-06
8.03633e-07
7.99366e-06
-3.49562e-06
-1.69167e-06
-4.07405e-06
5.01421e-06
6.84223e-08
-4.3058e-06
1.81711e-06
-1.93192e-06
-3.05152e-06
4.98344e-06
-1.72547e-06
-4.04164e-06
-2.80811e-06
6.79346e-06
-5.17006e-06
1.68765e-07
-4.88136e-06
4.90008e-06
-1.8719e-08
-4.03418e-06
3.85908e-06
-5.86443e-08
-4.78421e-06
4.84286e-06
-5.25966e-06
8.96009e-08
4.38704e-06
-5.22e-06
8.32967e-07
4.88759e-06
-4.94624e-06
4.36802e-06
-1.65396e-06
-2.71405e-06
-6.60591e-06
2.33884e-06
4.26706e-06
4.4792e-06
4.30272e-07
3.69987e-06
2.25237e-06
1.08136e-06
4.80395e-06
-1.28259e-06
-4.60273e-06
-5.32242e-06
5.27532e-06
4.70958e-08
-5.30805e-06
-1.43693e-08
-5.28081e-06
-2.72404e-08
1.56666e-08
1.3737e-06
-7.69014e-06
6.31643e-06
-5.71189e-06
6.79198e-06
4.51033e-06
-4.46535e-06
4.81915e-06
2.01197e-07
3.93068e-07
3.97495e-06
-4.83845e-06
-4.38677e-06
4.366e-06
5.44515e-07
-4.91051e-06
-2.48571e-08
-1.0411e-06
7.67791e-06
-6.63681e-06
7.28343e-06
-5.25245e-06
-2.20918e-06
3.31809e-06
-1.4006e-06
-4.30246e-06
-3.82281e-06
-2.7831e-06
-4.8373e-06
-3.00835e-07
-4.871e-06
4.87028e-06
7.14398e-10
-7.69784e-07
4.5734e-06
-3.80361e-06
-5.2289e-06
5.26576e-06
-3.6853e-08
-5.17429e-06
-5.46138e-08
-6.65056e-06
4.14177e-07
6.23638e-06
-4.64842e-06
-3.01546e-07
4.94996e-06
5.20964e-06
5.61182e-08
-9.2604e-07
-5.69302e-06
2.07399e-06
3.61903e-06
3.27964e-08
-3.01437e-06
-2.67866e-06
-7.11728e-08
-5.30974e-08
-4.75707e-06
4.81017e-06
-4.89228e-06
2.43863e-07
4.42137e-06
5.92847e-07
5.09563e-06
-4.88135e-06
4.84156e-06
-4.89466e-06
4.82079e-06
1.38799e-07
2.36953e-06
4.9139e-06
5.03209e-06
-9.57435e-07
-3.95176e-07
-6.57518e-06
-2.88071e-07
3.9738e-06
-3.68572e-06
-5.1496e-06
-2.46903e-08
-5.14886e-06
-7.39674e-10
5.19024e-06
-5.15318e-06
-3.70543e-08
5.1337e-06
5.65405e-08
-4.81293e-06
1.1887e-06
-1.63257e-06
4.43864e-07
-5.81426e-06
3.40194e-06
2.41232e-06
2.60393e-06
-5.22047e-06
2.61654e-06
-4.55718e-06
-4.23965e-07
-4.85474e-06
4.83069e-06
2.40481e-08
-5.05086e-06
4.87138e-06
1.79482e-07
-4.03339e-07
5.16886e-06
-4.76552e-06
-5.01475e-06
1.22471e-07
-5.56792e-06
6.94162e-06
-5.1697e-07
-4.51498e-06
-5.23476e-06
4.83142e-06
-4.10163e-06
-3.77524e-07
4.47916e-06
-3.84458e-06
5.1006e-06
3.30959e-08
-3.49387e-06
-9.34973e-07
1.03665e-06
-1.01678e-07
-4.82558e-08
1.87401e-07
-6.64274e-06
6.45534e-06
-3.72397e-06
-1.8079e-06
-5.17335e-06
5.06748e-06
1.05862e-07
-5.09396e-06
-7.93864e-08
-1.83193e-06
1.14027e-06
4.81203e-06
1.18502e-07
5.13893e-06
-8.55586e-07
5.08905e-06
-5.08313e-06
-5.9187e-09
-1.3737e-08
-4.72051e-06
4.73425e-06
5.32695e-06
-3.82221e-06
-6.41361e-08
5.28376e-06
2.98208e-06
-8.26584e-06
5.23558e-06
-5.23558e-06
8.09586e-07
4.75344e-06
-1.84758e-06
-3.26887e-06
-4.17316e-06
5.0299e-06
-8.56742e-07
-5.56625e-07
-4.49424e-06
4.81716e-06
-4.8309e-06
-4.61306e-06
7.84011e-08
4.53466e-06
8.85301e-07
-4.67553e-06
3.79022e-06
-4.84087e-06
4.79087e-06
4.99994e-08
3.0922e-06
2.23475e-06
-1.51406e-07
-7.83567e-07
-2.9077e-06
-2.90655e-06
-1.11221e-06
-5.16826e-06
5.28001e-07
-4.78421e-06
4.33531e-06
9.05221e-07
-4.02637e-06
-4.52195e-06
4.2031e-07
-4.6139e-06
2.68198e-06
5.23492e-06
-4.25592e-06
-9.79009e-07
8.94342e-07
4.20129e-06
-3.70616e-06
-1.75599e-06
-5.12108e-06
5.12108e-06
5.1229e-06
-4.92628e-06
-1.96616e-07
2.953e-07
-4.85248e-06
-4.09877e-06
4.63394e-06
-5.35174e-07
-1.62397e-06
7.53604e-07
4.77249e-06
-4.79576e-06
2.32655e-08
5.01333e-06
5.41518e-08
5.06538e-06
5.75131e-08
7.65329e-06
-4.88347e-06
-1.31283e-07
-4.28501e-06
3.51523e-06
4.80543e-06
8.21627e-08
5.05023e-06
-5.02168e-06
-2.85535e-08
-4.37296e-08
-6.97967e-08
5.27306e-07
-4.33061e-06
3.8033e-06
-1.51906e-07
-6.63079e-06
1.5859e-06
3.56808e-07
-4.45558e-06
-4.83048e-06
4.75684e-06
7.36462e-08
4.81976e-06
-4.32728e-07
-2.25094e-06
-2.99411e-06
-6.75299e-06
5.00511e-07
-2.70969e-06
-8.02268e-07
2.08849e-08
4.96468e-06
-4.42017e-06
-4.75707e-06
-4.76464e-06
1.24116e-07
4.64053e-06
6.72631e-06
9.51604e-07
3.87733e-06
1.94701e-06
4.69127e-06
-2.08734e-06
4.89918e-06
-2.78153e-07
1.1239e-05
-8.25696e-06
-7.69014e-06
-2.4644e-06
-2.65255e-06
-6.22106e-08
5.22337e-06
-4.89381e-06
-3.29563e-07
4.95152e-06
1.13864e-07
5.72599e-07
-4.74576e-06
-3.52168e-06
4.04899e-06
4.79983e-06
4.17271e-08
3.76971e-06
1.67006e-06
5.03582e-06
1.8755e-07
5.03152e-06
-4.95938e-06
-7.21423e-08
-2.26608e-06
-3.20574e-06
-2.26864e-07
4.63331e-06
8.6182e-08
-5.33687e-06
4.17194e-06
-3.28664e-06
-7.01568e-08
1.05244e-07
4.0706e-06
-4.41916e-06
3.4856e-07
7.43807e-07
4.2861e-06
6.82717e-06
-6.63977e-06
2.37543e-06
3.00644e-06
-4.81779e-06
4.76141e-06
5.63839e-08
-1.10978e-07
-2.80096e-06
1.53438e-06
1.26659e-06
-5.02129e-08
5.23447e-06
-5.23447e-06
5.91554e-06
-3.43007e-06
-2.48547e-06
-4.33738e-06
-7.29207e-07
3.65886e-06
1.73463e-06
5.00746e-06
2.8364e-08
-4.72051e-06
4.68354e-06
2.98019e-08
-4.71335e-06
3.83433e-06
5.33687e-06
-5.30189e-06
1.34805e-07
6.23123e-06
-5.51832e-06
4.82507e-06
-5.13888e-06
4.7918e-06
-1.08258e-07
4.32582e-06
-4.68089e-06
4.65625e-06
2.4633e-08
2.18804e-07
3.75631e-06
-3.97511e-06
-4.2592e-06
3.51842e-06
-3.19091e-07
4.45459e-06
6.06309e-07
-4.2714e-08
-4.11959e-06
-7.19077e-07
-6.16923e-06
3.90315e-06
6.90938e-09
-4.69324e-06
-4.99763e-06
-2.37124e-07
6.69356e-06
-3.61517e-06
4.80785e-08
-8.6564e-07
5.32267e-06
-4.45703e-06
-2.27428e-06
-5.26684e-07
4.66243e-06
-4.71259e-06
5.01669e-08
-4.82507e-06
4.78527e-06
2.07544e-06
2.96462e-06
-5.04006e-06
5.01602e-06
-9.45416e-07
4.16554e-07
4.45437e-06
4.91871e-06
4.77253e-07
5.36782e-07
6.51922e-07
-5.23315e-06
1.1581e-07
-4.15409e-06
4.72669e-06
-2.40622e-06
2.90673e-06
4.43747e-07
-4.36457e-06
3.92082e-06
-3.54428e-08
9.1911e-08
-4.35343e-06
-4.95221e-06
4.86142e-06
9.07984e-08
-4.75046e-06
4.94548e-07
3.1008e-06
2.81474e-06
-2.67371e-06
5.48149e-06
-2.80778e-06
5.49361e-06
-5.12855e-06
-3.65061e-07
1.371e-07
3.38132e-06
-4.71423e-06
-5.0406e-08
4.78486e-06
6.94591e-09
2.36577e-06
-8.31392e-07
6.09067e-06
-5.47273e-06
4.36622e-06
6.7001e-07
2.75049e-07
-4.85805e-06
7.38459e-07
7.40109e-08
-4.2281e-06
5.4247e-06
-4.38467e-06
4.42292e-06
-2.69179e-07
-4.21052e-06
4.4797e-06
-4.76173e-06
4.95875e-06
-5.86695e-08
-7.21378e-06
5.76964e-07
-3.06529e-08
4.67119e-06
9.02181e-08
-4.41042e-06
-4.84042e-06
4.82029e-06
2.01258e-08
5.79456e-06
-3.36581e-06
-2.42875e-06
-4.06201e-06
-3.65223e-07
4.42724e-06
-1.08991e-08
-4.78665e-06
1.02925e-07
-5.17718e-07
5.11279e-06
-4.59507e-06
-4.68708e-06
4.71034e-06
-6.80247e-06
-9.92846e-07
-6.57993e-06
6.41503e-06
1.64904e-07
3.75553e-06
1.9081e-06
4.39539e-06
3.94382e-07
-4.78977e-06
4.67117e-06
-1.91964e-07
3.76608e-06
1.87899e-06
-3.33534e-06
1.06107e-06
-4.72145e-06
4.10146e-06
-4.66666e-06
-6.33876e-06
6.31577e-06
2.29947e-08
5.72535e-06
-4.59599e-06
4.67042e-06
-1.41659e-08
2.87184e-07
-4.35562e-06
4.06844e-06
-7.04182e-08
-6.26834e-06
5.65986e-06
-5.65986e-06
-2.57609e-06
4.85602e-06
-2.27993e-06
-4.67404e-06
4.67404e-06
4.78018e-06
-4.22592e-06
-5.54258e-07
4.44406e-06
1.05562e-06
4.98061e-06
-4.08627e-06
4.92531e-06
-5.50288e-08
-3.85545e-06
-6.1753e-07
4.47298e-06
-6.26154e-06
6.28281e-06
-2.12681e-08
5.77794e-06
-3.47834e-06
-2.2996e-06
8.44184e-07
4.13643e-06
-6.32709e-06
6.2954e-06
3.16843e-08
-1.28747e-09
-4.61035e-08
6.24368e-06
-6.19758e-06
-6.30306e-06
6.30306e-06
-7.49987e-08
4.73743e-06
6.76407e-06
-6.30538e-06
-4.58683e-07
-6.33104e-06
6.28493e-06
6.32553e-06
-6.29331e-06
-3.22204e-08
-4.6087e-06
-1.03897e-07
5.39131e-06
-7.19724e-08
6.28355e-06
-6.21158e-06
6.28551e-06
-6.29735e-06
1.18355e-08
-4.75102e-06
6.25281e-06
-9.12374e-09
-4.83484e-06
4.79168e-06
4.31586e-08
-6.25162e-06
6.27417e-06
-2.25477e-08
4.78835e-06
-4.66423e-06
-6.3143e-06
6.24233e-06
4.8427e-06
-1.53953e-06
2.30667e-06
3.016e-06
-3.50107e-06
-2.66816e-06
-6.2924e-06
6.2924e-06
-6.32122e-06
-9.81607e-09
5.85166e-06
-1.07262e-06
-4.77904e-06
-4.1246e-06
2.80213e-06
1.57633e-07
6.26288e-06
-6.28227e-06
1.93955e-08
4.60957e-06
-4.6055e-06
-4.07167e-09
6.458e-06
-6.29027e-06
-1.67736e-07
6.2303e-06
3.25772e-08
6.21883e-06
6.47177e-08
-1.28088e-08
-4.66123e-06
-5.76844e-06
3.1741e-06
2.59435e-06
-4.65469e-06
4.68449e-06
6.25005e-06
-1.97538e-08
6.56105e-07
4.24308e-06
3.36153e-06
-1.2861e-06
-6.30521e-06
-9.08959e-09
5.14215e-06
3.05148e-06
-5.19922e-06
-7.92131e-07
-6.42165e-06
4.69152e-06
-4.7189e-06
2.73806e-08
-2.17502e-07
-6.36243e-06
4.88515e-06
-5.44547e-08
5.43138e-06
-3.71577e-06
-1.71562e-06
-4.70162e-06
6.25959e-06
-6.25959e-06
4.47932e-06
5.83616e-08
-4.53769e-06
4.82101e-06
-6.27275e-06
6.26452e-06
8.23011e-09
6.22836e-06
-6.28839e-06
6.00303e-08
3.96413e-06
-5.24671e-06
-1.67247e-08
-6.22859e-06
6.24532e-06
6.21423e-06
-6.23095e-06
-2.07851e-07
6.62288e-06
-4.97516e-06
5.38933e-06
-5.63121e-06
3.90574e-06
-9.90004e-08
6.41477e-06
5.39421e-07
2.77867e-06
5.30016e-08
5.79866e-06
-1.7144e-08
5.01875e-06
-5.00161e-06
-4.27115e-08
-6.28776e-06
-3.93295e-08
5.16154e-06
-5.16704e-07
-4.64483e-06
-6.24595e-06
6.24595e-06
3.66739e-06
-3.15725e-06
-6.29769e-06
6.28119e-06
1.65034e-08
4.80963e-06
-4.80963e-06
4.68229e-06
-7.27153e-08
6.25449e-06
-6.26454e-06
1.00462e-08
-6.03812e-06
1.65135e-06
6.08444e-09
-4.64581e-06
4.63973e-06
5.03876e-06
-4.21153e-08
6.26761e-06
5.79221e-08
3.80216e-06
6.48939e-07
-4.4511e-06
6.28678e-06
-3.39741e-08
4.88407e-06
-4.88407e-06
6.24682e-06
-6.2251e-06
-2.1725e-08
-4.77686e-06
4.74141e-06
3.54574e-08
6.29456e-06
-6.27548e-06
-1.90801e-08
-6.25631e-06
6.25631e-06
9.32254e-07
4.38065e-06
1.47932e-07
-4.52859e-06
-6.2982e-06
6.28181e-06
1.63923e-08
-2.32589e-08
-4.71634e-06
4.68907e-06
2.45449e-09
5.85384e-06
-1.10615e-06
-4.74769e-06
4.04434e-06
6.23096e-06
-6.24816e-06
1.71977e-08
4.81573e-06
5.14366e-06
7.25095e-08
4.40681e-06
6.38929e-06
-1.21682e-07
6.21048e-06
2.04824e-08
4.57029e-06
-4.57029e-06
-2.40622e-06
6.31887e-06
-6.26921e-06
-1.91853e-08
6.26599e-06
-6.2424e-06
-2.35933e-08
1.22584e-07
-6.38491e-06
6.26232e-06
6.56571e-07
-6.31643e-06
-6.28682e-06
6.27598e-06
1.08389e-08
4.53887e-06
-4.53627e-06
-2.60141e-09
4.78018e-06
-4.21853e-06
4.21853e-06
6.22309e-06
-1.26107e-08
-4.6659e-06
-4.35562e-06
4.39539e-06
4.84122e-06
-5.03454e-08
-1.41621e-08
4.95975e-07
-6.18048e-06
6.26493e-06
-6.26694e-06
2.00791e-09
1.49821e-07
4.38905e-06
1.44573e-07
5.01696e-06
4.71874e-06
-3.64562e-08
-6.27281e-06
6.26552e-06
7.29162e-09
6.21751e-06
-6.2349e-06
1.73889e-08
-6.26716e-06
-3.05378e-08
6.25016e-06
-6.23372e-06
-1.64383e-08
4.71936e-06
9.02654e-08
6.25402e-06
2.71729e-08
-7.87429e-09
6.24003e-06
2.54893e-08
-9.47925e-10
-4.62264e-06
-6.33512e-06
6.67768e-08
-4.68851e-06
4.68851e-06
5.81681e-08
5.79567e-06
-4.76447e-06
9.09018e-07
3.28329e-08
6.25268e-06
2.60503e-07
-4.50626e-06
4.24576e-06
4.35004e-08
6.25956e-06
5.97194e-06
-6.51323e-06
4.71511e-06
1.68961e-07
6.21423e-06
-4.81105e-08
4.42876e-06
-4.55892e-06
2.26511e-08
4.49209e-06
-6.89926e-07
-6.22975e-06
6.22975e-06
-6.26311e-06
-3.50904e-08
4.22592e-06
-4.3791e-06
1.53181e-07
-6.25956e-06
4.61336e-06
-4.60728e-06
6.25095e-06
3.08623e-08
-6.25384e-06
-5.56255e-06
3.87089e-06
-6.28057e-06
6.27011e-06
1.04555e-08
4.26968e-06
4.01489e-07
4.64581e-06
2.82204e-08
-6.20958e-06
6.25218e-06
-4.26017e-08
-4.71733e-06
4.67546e-06
4.18744e-08
-6.22946e-06
1.98764e-08
4.69856e-06
-9.49034e-09
2.60033e-07
-4.85723e-06
4.59719e-06
6.22802e-06
-6.2556e-06
2.75853e-08
5.06616e-06
-5.30328e-06
6.22732e-06
-6.22664e-06
-6.81506e-10
-3.97941e-06
3.97941e-06
-4.89976e-06
4.89976e-06
-6.22017e-06
-9.29104e-09
-2.90673e-06
3.44615e-06
-6.23797e-06
6.22879e-06
9.17896e-09
4.8681e-08
6.24372e-06
3.8899e-06
-3.44615e-06
-3.8899e-06
4.1087e-06
4.12957e-06
-4.7471e-06
5.69612e-06
-3.37513e-06
-2.32099e-06
-6.26029e-06
-2.65221e-08
-9.02237e-07
-4.1087e-06
5.01094e-06
6.25245e-06
2.35297e-08
-4.73712e-06
4.39007e-06
6.27041e-06
-6.25773e-06
-1.26729e-08
-6.23359e-06
-4.6947e-06
4.71625e-06
-1.45959e-07
-1.67055e-08
6.26676e-06
6.2405e-06
-4.63973e-06
-6.38927e-06
-3.74923e-06
4.78977e-06
-1.04054e-06
-6.20614e-06
-2.24563e-08
6.23242e-06
7.60327e-09
3.63467e-06
-3.71313e-06
7.84631e-08
7.15928e-09
4.3791e-06
-4.55519e-06
1.76088e-07
2.87386e-06
2.9207e-06
-6.25747e-06
-2.30968e-08
-4.7395e-06
6.20502e-06
-6.19983e-06
-5.18496e-09
6.24999e-06
2.01263e-08
-6.26809e-06
6.26135e-06
6.73791e-09
4.79141e-06
4.71936e-06
-6.22094e-06
6.20732e-06
1.36195e-08
6.26484e-06
-6.26208e-06
-2.75924e-09
-4.65917e-06
4.71511e-06
6.218e-06
-6.218e-06
2.47631e-08
6.27064e-06
-3.92616e-06
-8.38306e-07
6.23104e-06
-3.0213e-09
-8.00799e-07
4.25621e-06
-3.45542e-06
6.21506e-06
-6.20969e-06
-5.37969e-09
1.9028e-08
6.24056e-06
6.20377e-06
-6.20929e-06
5.52238e-09
-6.27629e-06
-6.25372e-06
-3.76649e-06
5.38976e-09
6.25913e-06
-6.57554e-09
-6.23686e-06
6.24343e-06
-6.21841e-06
6.20484e-06
1.35738e-08
-6.25722e-06
-1.08718e-08
-4.73662e-06
-4.57447e-06
1.55548e-08
6.25083e-06
1.05195e-08
-6.21278e-06
6.21015e-06
2.62464e-09
-6.21704e-06
2.33803e-08
6.19366e-06
6.25536e-06
1.50494e-08
-6.236e-06
-2.17358e-08
-4.54879e-06
-2.15027e-08
6.25229e-06
-6.25613e-06
3.84815e-09
6.21523e-06
-6.22181e-06
-6.22799e-06
6.2194e-06
8.5923e-09
6.21247e-06
-6.20744e-06
-5.03297e-09
4.68441e-06
4.09938e-09
6.25435e-06
1.04914e-08
-6.24562e-06
-1.64617e-08
-6.26854e-06
4.71625e-06
-6.21581e-06
6.20341e-06
1.23947e-08
4.12568e-06
-4.39486e-06
-6.19827e-06
6.22152e-06
-2.32497e-08
6.21749e-06
-6.22677e-06
9.28059e-09
-1.51892e-08
-6.2512e-06
-6.01883e-09
-1.62076e-08
-5.51847e-06
3.91508e-06
-1.06655e-08
6.21523e-06
-1.03062e-08
-6.63913e-09
-6.25646e-06
5.26494e-09
2.39271e-06
5.25608e-06
-7.64879e-06
-1.29514e-06
6.25232e-06
-3.77183e-11
-6.24056e-06
1.15267e-08
6.23442e-06
-6.24432e-06
-1.18103e-08
-4.69989e-06
-6.26269e-06
6.22288e-09
2.18832e-08
6.23261e-06
-9.76086e-10
2.96064e-08
-6.15674e-06
6.12713e-06
6.26095e-06
-6.25776e-06
-3.19058e-09
-4.78387e-06
8.57701e-07
6.24889e-06
-6.23795e-06
-1.09432e-08
-6.25301e-06
-4.63652e-06
-2.44469e-07
6.21116e-06
-6.20625e-06
-4.90813e-09
3.26353e-08
-6.16259e-06
6.12996e-06
-6.25938e-06
6.24772e-06
1.16625e-08
-4.7327e-06
4.69357e-06
3.91294e-08
5.49181e-09
-6.25932e-06
-3.36517e-09
-4.75939e-06
9.87382e-07
3.77201e-06
-6.25116e-06
-8.22759e-09
6.25889e-06
2.06188e-09
-6.24864e-06
-9.11796e-09
-2.48914e-08
-6.25973e-06
4.10152e-10
-4.50134e-06
-5.24716e-07
5.02606e-06
3.59707e-06
2.62864e-08
-6.23442e-06
4.69455e-06
-1.90895e-08
-6.21084e-06
6.21084e-06
-1.20106e-08
6.25589e-06
2.99884e-09
-4.95811e-09
9.73425e-09
1.00276e-08
6.25825e-06
-2.36655e-09
3.68481e-09
6.25662e-06
-6.25668e-06
5.49791e-11
4.51593e-06
-4.51593e-06
-6.2437e-06
6.23028e-06
1.34188e-08
6.22123e-06
-6.21485e-06
-6.38079e-09
-8.77976e-09
6.25434e-06
3.91291e-09
6.25464e-06
1.9829e-09
-2.33691e-09
6.25523e-06
6.24915e-06
-6.2526e-06
3.45546e-09
-6.30946e-06
-6.22917e-06
-1.45354e-08
4.81584e-06
-5.90035e-08
6.24356e-06
5.58992e-09
5.23356e-08
6.2483e-06
-6.24145e-06
-6.84633e-09
-4.463e-06
4.463e-06
3.49936e-08
6.22131e-06
-6.20982e-06
6.2198e-06
-9.97574e-09
6.24698e-06
1.32257e-09
4.81912e-08
4.67055e-06
6.23958e-06
-6.23722e-06
-2.35847e-09
-6.19038e-06
-1.94438e-08
6.22196e-06
-6.22705e-06
5.0903e-09
6.23555e-06
4.03446e-09
6.24708e-06
7.56173e-09
-6.19224e-08
-6.17493e-06
-1.01823e-08
-5.5027e-07
-4.19549e-06
6.21218e-06
-6.21821e-06
6.02361e-09
1.86268e-07
4.32966e-06
6.23879e-06
-6.23293e-06
-5.85207e-09
-5.52431e-09
-1.06747e-07
-5.18961e-06
5.29635e-06
-4.51898e-06
4.57041e-06
-5.14337e-08
-6.18304e-06
6.18503e-06
-1.98686e-09
6.23159e-06
7.19148e-09
-6.21317e-06
-3.88394e-06
6.27666e-06
6.23404e-06
-6.22518e-06
-8.85833e-09
-6.24008e-06
6.24024e-06
-1.58253e-10
6.22216e-06
-6.21652e-06
-5.63794e-09
-6.05009e-07
-5.33686e-06
5.94187e-06
6.22763e-06
6.40377e-09
-6.18778e-06
4.74008e-09
6.23493e-06
-6.22695e-06
-7.98616e-09
4.68441e-06
-4.79746e-06
4.79746e-06
6.23262e-06
-6.22088e-06
-1.17356e-08
-1.20403e-08
6.23513e-06
-9.79544e-09
-4.69097e-06
6.22383e-06
8.79036e-09
-6.23951e-06
-1.16495e-08
-6.17829e-06
6.18157e-06
-3.28514e-09
6.24016e-06
3.39409e-09
1.05411e-07
6.1774e-06
-1.2894e-09
6.23434e-06
1.5818e-08
4.66958e-06
2.49668e-08
7.30623e-10
-6.18439e-06
6.10616e-09
4.76269e-07
1.7301e-08
2.01233e-07
6.21633e-06
-6.22216e-06
5.82923e-09
-6.17173e-06
6.17892e-06
-7.18184e-09
1.10642e-07
-4.67629e-06
4.56565e-06
8.35882e-07
-4.87098e-06
4.0351e-06
1.78566e-06
4.41612e-06
-4.41612e-06
6.21204e-06
-6.21204e-06
-5.11426e-06
2.85663e-09
-6.2238e-06
4.76722e-06
6.23296e-06
1.40182e-08
-1.17563e-06
-2.18605e-06
3.36168e-06
-6.18074e-06
9.00905e-09
-6.18423e-06
-2.00677e-07
2.6429e-06
-4.36087e-06
1.71797e-06
-4.26466e-09
4.223e-08
6.17929e-06
1.64738e-08
4.68209e-06
-6.24179e-06
1.31317e-08
6.21662e-06
3.96564e-06
-4.83875e-06
8.7311e-07
4.0354e-06
-1.3925e-06
-7.76925e-09
-6.21064e-06
6.24271e-06
-6.20048e-06
-6.22484e-06
-6.16358e-06
6.15773e-06
5.85206e-09
1.3791e-09
6.22741e-06
6.20559e-06
6.44863e-09
5.67048e-06
-3.76338e-06
-1.9071e-06
-2.20064e-08
4.73712e-06
6.22571e-06
9.8331e-09
5.66835e-06
-6.27336e-06
4.20966e-08
6.17913e-06
-7.34137e-09
-6.20847e-06
-6.17079e-06
7.20891e-09
-4.53294e-06
1.39624e-08
4.76275e-06
-3.81873e-06
-9.4402e-07
6.19452e-06
-6.19506e-06
5.35875e-10
-7.22124e-09
1.78755e-06
-2.51243e-06
-2.35381e-06
4.86624e-06
6.20606e-06
-6.21561e-06
9.55066e-09
4.94442e-06
-4.88606e-06
-1.72624e-08
4.73662e-06
-4.06755e-06
2.89192e-06
6.1998e-06
-6.20603e-06
6.23205e-09
6.23544e-06
-6.19335e-06
-4.67097e-06
1.55041e-07
-4.68894e-06
4.68312e-06
5.81965e-09
4.55519e-06
-4.66194e-06
9.88095e-08
6.17536e-06
-4.73085e-06
4.58847e-06
-1.67106e-07
6.22579e-06
-6.21825e-06
-7.54535e-09
4.84754e-06
-4.63055e-06
-2.16989e-07
6.20559e-06
-3.74693e-09
-6.20903e-06
-4.58966e-06
1.5182e-08
5.75458e-07
3.52566e-06
-4.10112e-06
-6.15571e-06
6.14903e-06
6.67816e-09
6.1958e-06
2.16882e-08
-3.92395e-06
-8.23145e-07
4.50923e-08
6.17707e-06
6.21551e-06
-6.23001e-06
1.4508e-08
6.20787e-06
-1.14681e-08
-6.18836e-06
-4.85408e-06
-8.18226e-07
6.21868e-06
1.29147e-08
6.61155e-06
-1.35547e-06
-3.76475e-08
6.2125e-06
-6.17486e-06
6.20976e-06
5.74844e-09
-6.16448e-06
8.76447e-09
-6.18237e-06
-4.42725e-08
-1.18602e-08
6.1295e-06
-6.11764e-06
8.06475e-09
6.20994e-06
6.23626e-06
-6.19117e-06
-6.21662e-06
-2.32479e-08
4.7395e-06
-6.49949e-09
4.70105e-06
-2.42682e-07
-4.45837e-06
6.32637e-08
4.63779e-06
-6.13825e-06
6.12639e-06
-6.21571e-06
-1.3454e-08
3.94575e-06
8.16996e-07
-2.35656e-08
4.8077e-06
-4.78413e-06
-3.98278e-06
-3.33166e-06
3.90711e-06
-5.19547e-06
6.42379e-07
4.55309e-06
6.2073e-06
4.73636e-09
-6.21442e-06
6.16814e-08
6.18103e-06
6.19798e-06
-6.19889e-06
9.15212e-10
6.21153e-06
-6.19304e-06
-1.84872e-08
-6.21992e-06
4.0815e-09
-8.96742e-09
-4.69339e-06
4.70236e-06
9.06332e-10
6.21849e-06
-4.31444e-06
1.26292e-06
-6.21178e-06
6.20831e-06
3.47628e-09
-6.14706e-06
6.13974e-06
7.32545e-09
6.04924e-08
5.08088e-06
-4.93295e-06
3.72395e-06
-8.9274e-08
-3.22489e-08
6.21598e-06
-6.18373e-06
-5.54278e-06
3.03035e-06
6.20513e-06
5.49558e-09
-6.21293e-06
6.21159e-06
1.60405e-08
-5.80571e-06
5.82631e-08
5.74745e-06
9.71856e-09
-6.15678e-06
6.19932e-06
-6.1928e-06
-6.51595e-09
-1.96341e-07
6.23601e-06
-6.03967e-06
-9.28949e-09
-1.27469e-06
5.83573e-06
-4.56104e-06
-4.67097e-06
-5.1802e-06
6.20322e-06
-3.41955e-09
5.44479e-08
6.18099e-06
6.04788e-06
6.26179e-06
-6.25704e-06
-4.74573e-09
-1.84888e-11
-4.70092e-06
4.70094e-06
-6.20679e-06
6.20258e-06
4.21255e-09
1.25382e-07
-4.67417e-06
4.54879e-06
6.215e-06
-6.2124e-06
-2.59145e-09
-4.81225e-06
4.78868e-06
6.19672e-06
-6.19194e-06
-4.77048e-09
1.73849e-08
6.19414e-06
-6.76087e-08
6.22971e-06
-6.21078e-06
6.46035e-08
-4.5813e-06
6.21044e-06
-6.20938e-06
-1.06484e-09
6.20741e-06
3.62632e-09
-6.20988e-06
6.17563e-06
1.31163e-08
-6.18875e-06
1.48028e-09
6.21124e-06
-6.19386e-06
-1.47533e-08
-4.70334e-06
4.71809e-06
3.33502e-06
-4.90739e-06
1.57237e-06
-1.04561e-06
-4.7601e-06
-4.55969e-06
-1.02584e-06
-4.00287e-06
-6.20361e-06
3.57525e-08
6.16786e-06
-4.73202e-06
4.70334e-06
2.86859e-08
-1.44e-06
-3.80671e-06
-6.20042e-06
5.53535e-06
-6.18759e-06
6.19848e-06
-1.08943e-08
-5.17145e-06
5.14062e-07
4.65739e-06
4.9365e-06
-3.79342e-06
-1.14308e-06
-6.20925e-06
1.2443e-08
6.19681e-06
4.71084e-06
-4.65204e-06
1.2983e-08
6.18633e-06
-6.20994e-06
6.30461e-09
6.20454e-06
6.20365e-06
2.01757e-08
-1.02907e-09
-6.20826e-06
-2.00662e-08
-6.19172e-06
-6.19381e-06
4.70528e-06
-4.64701e-06
-2.63608e-08
1.3262e-06
4.10518e-06
-4.25005e-06
4.25005e-06
5.38551e-08
6.18241e-06
-7.03792e-06
-5.7259e-06
5.72588e-06
6.21206e-06
4.70187e-06
-4.66808e-06
-6.20249e-06
6.18243e-06
-5.2424e-06
5.36779e-06
6.19818e-06
-6.19277e-06
-5.41413e-09
7.50026e-09
6.20468e-06
-6.2772e-06
4.7234e-06
-4.73815e-06
-6.20076e-06
1.03798e-08
2.33511e-06
6.21594e-06
-6.20839e-06
-7.55106e-09
-6.2119e-06
6.19848e-06
-6.19331e-06
-5.16964e-09
-6.19743e-06
-6.18818e-09
6.18431e-06
-6.16537e-06
-4.74141e-06
5.69937e-06
6.19313e-06
-6.1911e-06
-2.03544e-09
-1.09271e-08
6.18656e-06
-4.73202e-06
4.10114e-06
-4.44476e-06
3.4362e-07
-7.62883e-06
7.62883e-06
6.20912e-06
6.21033e-06
-1.57269e-08
1.03913e-08
-6.20861e-06
6.23013e-06
-2.15206e-08
6.19661e-06
-6.19142e-06
-5.18307e-09
-5.14215e-06
4.89768e-06
1.91122e-08
6.19339e-06
-6.20918e-06
1.67564e-08
6.19242e-06
-6.19102e-06
6.2044e-06
-6.19609e-06
-4.75493e-06
-6.20403e-06
2.07057e-08
6.18333e-06
-4.7619e-06
-1.33797e-08
4.64745e-06
-4.68276e-06
3.53095e-08
6.18848e-06
-6.1937e-06
5.21609e-09
1.14511e-07
-6.20393e-06
6.19365e-06
1.028e-08
6.19987e-06
-4.54585e-06
-4.51381e-06
-7.5844e-08
6.20795e-06
-6.20795e-06
-3.17697e-08
4.71618e-06
-6.20454e-06
6.19545e-06
-6.19028e-06
-5.17186e-09
6.20704e-06
-3.4566e-08
-6.19915e-06
-4.61483e-06
-5.74782e-07
-4.73121e-06
3.70851e-06
-4.14219e-06
4.33681e-07
-9.28839e-07
-4.00507e-06
4.93391e-06
6.18409e-06
-6.16772e-06
4.00766e-06
-4.67629e-06
-1.33501e-08
-6.1959e-06
6.19878e-06
-6.19364e-06
-5.14144e-09
4.76225e-06
-4.78583e-06
-1.31008e-06
-8.64678e-07
2.17476e-06
-4.94009e-06
4.9815e-06
4.77945e-06
-4.71618e-06
-1.87341e-08
-4.63481e-06
4.65355e-06
-2.19744e-08
-4.59948e-06
4.62146e-06
1.55414e-08
-4.81928e-06
4.80374e-06
4.40847e-08
-4.8387e-06
4.79462e-06
2.22764e-08
-4.74166e-06
4.71939e-06
-9.22365e-09
-4.64063e-06
4.64985e-06
-1.07402e-08
-4.63675e-06
4.64749e-06
2.79156e-06
-1.88089e-06
-9.10667e-07
4.11701e-06
3.01834e-08
6.1858e-06
4.53876e-06
-4.56435e-06
2.559e-08
1.45774e-08
-6.19634e-06
6.18176e-06
6.21237e-06
-6.21237e-06
6.1301e-06
-1.50807e-09
-6.12859e-06
-2.06229e-08
-6.18187e-06
6.195e-06
-6.1896e-06
-5.39346e-09
-3.85037e-06
-5.05573e-06
-1.15721e-07
4.05966e-06
7.87875e-07
6.2074e-06
-6.19907e-06
-8.32851e-09
-4.72513e-06
4.90971e-06
2.05477e-08
6.19069e-06
-3.40554e-06
-2.13724e-06
4.57802e-08
4.44784e-06
-4.49362e-06
-3.17594e-06
-5.37196e-07
-1.06559e-06
-6.60051e-07
1.72564e-06
4.66045e-06
4.66119e-06
4.86497e-06
4.86509e-06
4.83127e-06
4.76943e-06
-2.1717e-08
-4.67318e-06
4.6949e-06
4.67565e-06
-6.06839e-09
-1.84185e-06
6.19699e-06
-6.18241e-06
-1.53022e-07
4.98444e-06
-6.21581e-06
-4.24363e-06
5.24597e-06
6.12188e-06
5.37347e-09
-6.12725e-06
6.22051e-06
-1.25639e-08
-6.20715e-06
2.22494e-08
6.1849e-06
-4.68141e-06
-4.69339e-06
4.6928e-06
-4.71452e-06
-4.27123e-06
5.16024e-06
-8.89019e-07
-1.10798e-08
-6.19295e-06
3.23534e-06
-4.03614e-06
1.02331e-08
-6.20303e-06
-6.19574e-06
-1.64825e-06
-2.4193e-06
-6.18463e-06
-1.17095e-08
4.74848e-06
1.48148e-06
3.61021e-06
6.189e-06
-6.18423e-06
-4.76712e-09
4.71828e-06
-3.12522e-06
-1.59307e-06
-2.24633e-06
1.18074e-06
-2.60345e-06
5.6338e-06
-2.25769e-06
4.69347e-06
-2.43578e-06
1.90511e-09
6.20415e-06
-6.16175e-06
6.1933e-06
-6.19692e-06
3.61648e-09
-3.50798e-06
1.49641e-06
2.01157e-06
-2.07115e-08
-4.67182e-06
4.69253e-06
6.4874e-06
-2.87268e-06
-3.61471e-06
4.62605e-09
6.12547e-06
-1.34829e-06
-2.15969e-06
-4.52637e-06
4.57215e-06
3.8611e-06
2.55909e-07
-4.50394e-06
-9.5189e-09
-4.67839e-06
4.68791e-06
4.83306e-06
-4.68324e-06
-2.8778e-06
-1.09072e-06
3.96852e-06
-6.18384e-06
6.18564e-06
-1.79622e-09
-4.57256e-06
4.63717e-06
6.1907e-06
-6.19472e-06
-4.13868e-06
-1.11369e-07
-6.23669e-06
6.2131e-06
-3.22918e-06
4.67741e-09
6.19381e-06
5.40281e-06
-2.98598e-06
-2.41682e-06
4.57397e-06
-8.65458e-07
5.10888e-06
-6.61039e-07
4.68529e-06
-4.70601e-06
6.18225e-06
-6.18256e-06
3.03882e-10
4.69068e-06
-4.7002e-06
5.68627e-09
-6.1791e-06
6.17341e-06
-2.6067e-06
-6.22481e-07
1.11048e-08
-4.75251e-06
-6.19653e-06