/*--------------------------------*- C++ -*----------------------------------*\
  =========                 |
  \\      /  F ield         | OpenFOAM: The Open Source CFD Toolbox
   \\    /   O peration     | Website:  https://openfoam.org
    \\  /    A nd           | Version:  12
     \\/     M anipulation  |
\*---------------------------------------------------------------------------*/
FoamFile
{
    format      ascii;
    class       volVectorField;
    location    "0.22";
    object      U;
}
// * * * * * * * * * * * * * * * * * * * * * * * * * * * * * * * * * * * * * //

dimensions      [0 1 -1 0 0 0 0];

internalField   nonuniform List<vector> 
4428
(
(0.00167364 0.000634826 1.01428e-16)
(-0.00169499 0.000699013 -9.03818e-17)
(-0.0015283 0.000699681 0)
(-0.00159403 0.00067183 0)
(0.00153419 0.00126958 8.16382e-17)
(0.00158314 0.00130036 3.21516e-21)
(-0.00152318 0.000868955 0)
(-0.00171006 0.000610169 1.46409e-16)
(0.00163906 0.000667115 -2.49063e-16)
(0.00168945 0.000493481 9.95364e-17)
(-0.0015503 0.00054173 -1.73328e-16)
(0.00157183 0.000655866 -1.7686e-16)
(-0.00175441 0.000375423 -2.03656e-16)
(-0.000549908 0.00196823 -9.58144e-17)
(0.00164785 0.000640928 0)
(0.00150167 0.000554131 0)
(0.00169684 0.000609235 0)
(-0.00155138 0.000539989 0)
(-0.00176518 0.000373997 0)
(0.00166464 0.000643766 0)
(0.000593108 0.000486572 -4.48033e-16)
(-0.0016871 0.000647435 -1.777e-16)
(-0.0015938 0.000676212 0)
(-0.00172997 0.000595188 0)
(-0.00167927 0.000640667 2.26614e-17)
(-0.00159424 0.000593164 0)
(-0.0016099 0.000848077 1.03355e-16)
(0.00161562 0.000529578 2.07801e-16)
(0.00150674 0.000741153 0)
(-0.00177345 0.000413218 0)
(0.00163845 0.000408548 0)
(-0.00170672 0.000645931 -1.84201e-16)
(0.00166831 0.000530396 -9.00184e-17)
(-0.00173155 0.000838539 -2.77418e-16)
(-1.02698e-05 0.00227645 4.69765e-17)
(-0.00170272 0.000663125 1.9986e-16)
(-0.00166722 0.00083661 -4.43227e-21)
(0.00155025 0.00208958 1.27041e-17)
(-0.000254015 0.00197194 -2.62229e-17)
(-0.00159726 0.000699779 0)
(0.00167641 0.000603824 0)
(0.00153041 0.000495026 0)
(0.00160142 0.000546344 9.24307e-17)
(-0.00173808 0.000560052 1.66056e-16)
(0.00167146 0.000533681 0)
(0.00136672 0.000510237 0)
(0.00160261 0.00153056 -9.97821e-17)
(-0.00159368 0.000770647 2.03141e-16)
(-0.00161654 0.000676405 2.24456e-16)
(-0.00166639 0.000731799 0)
(0.00166951 0.000697004 0)
(0.00150034 0.000713178 1.8812e-16)
(0.00170183 0.000486949 -9.13173e-17)
(0.00152111 0.000731402 0)
(0.00155224 0.000655122 -1.39782e-17)
(0.00100098 0.000480287 0)
(0.0014828 0.000703185 -9.29915e-17)
(-0.00163488 0.000538025 0)
(0.00139346 0.00149305 1.82958e-16)
(0.00163328 0.000563505 -1.82008e-16)
(0.00170763 0.000657107 1.67094e-16)
(-0.00170423 0.000543634 0)
(0.00148911 0.000593877 2.79949e-16)
(-0.00170275 0.000642786 9.2697e-17)
(-0.00169902 0.000664443 0)
(0.00156618 0.000688553 0)
(-0.00173699 0.000570049 1.73155e-16)
(-0.0016072 0.000684871 -1.85818e-16)
(0.00161697 0.000577486 -1.82183e-16)
(-0.00164381 0.000715529 -3.61904e-16)
(-0.00174367 0.000546252 -9.16119e-17)
(0.00164362 0.000747526 2.1265e-16)
(0.00177657 0.000773537 5.80496e-17)
(-0.00158236 0.000657851 4.46947e-17)
(0.00166719 0.000582423 1.96647e-16)
(-2.93119e-05 0.00225395 -1.83292e-16)
(0.00169981 0.000777368 0)
(0.00174952 0.000678531 0)
(-0.00153814 0.000875227 -1.18142e-16)
(0.0011992 0.000570479 -4.36375e-21)
(0.00149258 0.000764851 -1.97536e-16)
(-0.00173111 0.000548742 0)
(0.00160886 0.00076826 -1.81061e-16)
(0.00161783 0.000668777 -1.72064e-16)
(0.00169884 0.000606197 3.18301e-16)
(-0.00184709 0.000592395 -2.54685e-16)
(-0.000212827 0.00252889 1.15141e-16)
(-0.00172886 0.000632721 0)
(-0.00169842 0.000649645 -9.60328e-17)
(0.00155441 0.000681933 2.04739e-17)
(0.00166869 0.000503035 8.3664e-17)
(0.0017112 0.000612566 -1.59366e-16)
(-0.00171547 0.000682777 0)
(-0.00169282 0.000629628 0)
(-0.00169882 0.000665224 9.81681e-17)
(-0.00165163 0.000688224 1.67118e-16)
(0.00167476 0.000665844 1.13529e-16)
(-0.00171699 0.000651733 -1.19901e-16)
(-0.00174569 0.000541698 9.28695e-17)
(0.00157519 0.000840588 0)
(0.00158398 0.000717829 -2.25139e-17)
(0.00163542 0.00064026 0)
(0.00167625 0.000591695 0)
(0.00151579 0.000567194 -1.87984e-16)
(0.00146655 0.000684138 -1.037e-16)
(0.0015437 0.00074697 2.49378e-21)
(0.00162955 0.00067077 1.90324e-16)
(-0.0016706 0.000796966 -1.22454e-16)
(0.00167388 0.000665447 -1.20821e-16)
(0.00160137 0.000782889 0)
(0.00163147 0.000544293 1.64694e-16)
(0.0016412 0.000630768 -1.94802e-16)
(-0.00158131 0.000649262 2.64994e-21)
(0.00156159 0.000592355 1.65962e-16)
(-0.000941546 0.000592844 1.15541e-16)
(-0.00173872 0.000531401 1.80231e-16)
(-0.000380231 0.00219151 0)
(0.000676462 0.000526896 5.24743e-17)
(-0.00175939 0.000586135 8.87641e-17)
(0.00174981 0.000676472 -1.12858e-16)
(0.00173304 0.000675781 2.11528e-16)
(-0.00153986 0.00088163 2.41274e-16)
(0.00113527 0.00185756 -1.96893e-16)
(0.00165437 0.000535665 -3.03616e-16)
(-6.22063e-06 0.00227685 1.78757e-16)
(-0.00170396 0.000642708 0)
(-0.00172868 0.000583669 -2.72254e-16)
(0.00157296 0.000653529 9.95079e-17)
(-0.00169992 0.000692465 -3.04097e-16)
(-0.0017014 0.000662111 9.66757e-17)
(-0.00174223 0.000550935 -1.87131e-16)
(-0.00166874 0.000687237 0)
(0.00168025 0.000671113 2.24123e-16)
(0.00161228 0.000602174 0)
(0.00163487 0.00063817 0)
(0.00174703 0.000754641 6.5417e-21)
(0.00171249 0.000714844 -2.43666e-16)
(-0.00173505 0.000538182 -1.82386e-16)
(-0.00170519 0.000659616 -1.83549e-16)
(-0.00168896 0.000684591 1.43947e-16)
(-0.00167768 0.000806135 -1.23705e-16)
(-0.00170711 0.000617056 -9.67474e-17)
(0.00160931 0.000644641 0)
(0.00161811 0.000659941 -1.99427e-16)
(0.00169547 0.000636202 0)
(0.00159719 0.000613409 9.67637e-17)
(0.00171327 0.000766961 1.28472e-16)
(-4.41695e-05 0.00161725 -9.13938e-17)
(0.00178855 0.000498874 2.88885e-16)
(-1.74363e-06 0.00227093 4.54403e-17)
(-0.00170284 0.000642615 -1.99511e-16)
(-0.00110985 0.000492676 1.00283e-16)
(0.00159617 0.000526438 -9.60401e-21)
(0.00177708 0.000615247 -2.48621e-16)
(-0.00170025 0.000661805 2.91592e-16)
(0.00172866 0.000646785 0)
(0.00156201 0.00105394 -1.77126e-16)
(0.00168331 0.000503782 -9.48474e-17)
(0.00164695 0.000606572 -1.78765e-16)
(-0.00171768 0.000562679 -9.12335e-17)
(-0.00169327 0.000703318 1.95445e-16)
(0.00165237 0.000652622 0)
(0.00177198 0.000557171 0)
(-0.00059708 0.000267173 -2.17177e-16)
(-0.00180269 0.000748577 1.19562e-16)
(-0.0017365 0.000543291 0)
(-0.00169777 0.000622291 0)
(0.00176905 0.000590002 0)
(-0.00169601 0.000657317 1.90844e-21)
(-0.00171265 0.000733334 9.36778e-17)
(-0.00174074 0.00057346 -9.37989e-17)
(0.00170744 0.000675514 3.96422e-21)
(-0.00171254 0.000646362 0)
(0.00154556 0.000649554 0)
(0.00157079 0.00203539 -1.16373e-17)
(-0.00182246 0.000759726 2.29075e-16)
(0.00171571 0.000621397 0)
(0.00150405 0.000750822 2.14588e-16)
(0.00160405 0.000674277 2.17938e-16)
(-0.00182152 0.000738063 1.14318e-16)
(-0.000199287 0.00229319 -7.08124e-21)
(-0.00164281 0.000674278 1.75077e-16)
(-0.00171552 0.00060184 1.9195e-16)
(0.00156672 0.000604275 0)
(-0.00170204 0.000643017 3.0057e-16)
(-0.00169629 0.000782902 -9.52164e-17)
(0.00168772 0.000652969 0)
(-0.00169794 0.000660692 0)
(0.00143772 0.000626384 3.43569e-16)
(0.00165641 0.00073269 0)
(0.00164576 0.000601522 0)
(0.00172072 0.000819316 2.58468e-17)
(0.00167312 0.000596118 0)
(0.00170017 0.000706447 -3.6787e-16)
(-0.00165426 0.000775323 0)
(-0.00164633 0.000765089 -1.80866e-16)
(-0.001646 0.000763021 2.70922e-16)
(-0.00162209 0.000749496 8.8877e-17)
(0.00231372 0.00133971 1.48756e-16)
(-0.000515772 0.00242774 0)
(0.00167885 0.000763889 2.13762e-16)
(-0.00171405 0.000620604 -1.94079e-16)
(0.00132087 0.000706959 -1.90307e-16)
(-0.00172397 0.0005613 0)
(0.00152995 0.000589138 -1.7663e-16)
(0.00166029 0.000583369 -2.98057e-18)
(-0.00169258 0.000658816 9.32576e-17)
(-0.00037596 0.00262934 -1.77906e-16)
(-0.000820291 0.00227787 1.1184e-17)
(0.00112624 0.000592238 0)
(0.00169711 0.000727058 0)
(0.00182179 0.000653373 0)
(0.00169201 0.000711264 5.94814e-21)
(-0.00171121 0.000602885 0)
(0.00165254 0.000629273 0)
(-0.00166569 0.000758324 -1.40088e-16)
(-0.00164787 0.000747539 1.83783e-16)
(3.20353e-05 0.00227375 -1.84691e-16)
(-0.00160081 0.000605958 1.99297e-16)
(-0.00163905 0.000758617 -4.5359e-17)
(0.00169238 0.000702821 1.95363e-16)
(0.00176575 0.000618511 -6.15111e-17)
(-0.00168869 0.000657078 1.85469e-16)
(0.00172578 0.000743856 0)
(-0.00165393 0.000763738 0)
(-0.00170188 0.000643996 0)
(-0.00172675 0.000657301 -1.08726e-16)
(0.00164537 0.000593031 -1.93043e-16)
(0.00157183 0.000657523 3.74036e-21)
(-0.00169732 0.000660555 0)
(-0.00170345 0.000619145 9.83236e-17)
(-0.00104617 0.00207599 0)
(0.00143082 0.000853703 0)
(0.00025027 0.0025081 8.61738e-17)
(0.0016009 0.000641465 5.74625e-17)
(-0.00166353 0.000740336 0)
(-0.00165541 0.000753988 0)
(-0.0016544 0.00074915 1.88216e-16)
(-0.00166117 0.00074663 -1.86173e-16)
(-0.00172076 0.000570686 2.97768e-16)
(-0.000167981 0.000418471 5.13887e-17)
(-0.00172874 0.000661458 -5.90059e-17)
(-0.00163549 0.000748392 6.23697e-17)
(0.00166147 0.000652738 2.23734e-17)
(-0.00170836 0.000607956 -9.6258e-17)
(-0.000468063 0.00169952 -1.01155e-16)
(-0.00168947 0.000806514 1.89325e-16)
(-0.00171052 0.000610745 1.92815e-16)
(0.00196879 0.00131657 0)
(-0.000191049 0.00171582 0)
(-0.00177929 0.000737723 6.1107e-21)
(0.00161507 0.000642808 2.04394e-16)
(0.00170901 0.000696812 -1.05649e-16)
(-0.00165086 0.000747696 1.81887e-16)
(0.00148457 0.000552872 -1.31317e-16)
(0.000291114 0.000198275 1.07918e-16)
(-0.00165633 0.000749662 -3.65586e-16)
(3.41928e-05 0.00225852 0)
(-0.00193763 0.000704429 -3.66785e-17)
(-0.00166732 0.000746268 -2.11761e-16)
(-0.0016615 0.000747078 1.90019e-16)
(-0.000588456 0.000298334 2.17218e-16)
(-0.00170177 0.000623133 0)
(0.00178455 0.000393043 1.23012e-16)
(-0.0016543 0.000745234 -9.37844e-17)
(-0.00169123 0.000657151 -1.00072e-16)
(0.00169006 0.000612871 0)
(-0.0016574 0.000748563 0)
(-0.00114597 0.00250993 1.37276e-16)
(-0.00175567 0.000592998 -1.83736e-16)
(0.00164892 0.000569898 0)
(0.00172361 0.000778503 2.37178e-16)
(0.00164957 0.000657253 1.23124e-17)
(-0.000347942 0.00183533 2.5844e-16)
(-0.00170312 0.000643825 0)
(0.00160289 0.00067777 1.98131e-16)
(0.00166449 0.000637092 -2.63561e-16)
(-0.00170517 0.000618037 1.94296e-16)
(0.00175092 0.000825061 0)
(0.000279464 0.000195189 -1.10465e-16)
(-0.00183052 0.00076593 -2.3672e-22)
(-0.000309821 0.00234105 9.63402e-17)
(0.00165584 0.000618338 0)
(-0.00171758 0.00057818 -2.99175e-16)
(0.0015309 0.000870654 3.93344e-16)
(0.00150466 0.000882272 -9.12437e-17)
(0.00167135 0.000653919 -1.3295e-17)
(0.00167272 0.000563141 -1.26247e-16)
(0.00167189 0.000660036 1.94436e-16)
(0.00169061 0.000621674 0)
(-0.00186852 0.000574202 1.43578e-16)
(-0.0017632 0.000573916 -1.87091e-16)
(-0.00166818 0.000735612 -7.47194e-19)
(0.00158534 0.000755788 0)
(0.00155274 0.000667952 2.14671e-16)
(0.000535026 0.000197551 2.31986e-16)
(-0.00169267 0.000631568 1.95533e-16)
(-0.00165259 0.000743757 2.07962e-16)
(-0.00168965 0.000759693 0)
(-0.00104547 0.00245042 1.96761e-16)
(-0.00170819 0.000621956 5.91679e-21)
(0.00157613 0.000582428 1.14694e-16)
(-0.00170011 0.000626479 0)
(-0.00166307 0.000745063 -1.18782e-17)
(-0.00166204 0.000750101 0)
(-0.00166118 0.000748441 -1.85911e-16)
(-0.0017125 0.000661312 0)
(-0.000224527 0.00250215 -1.19591e-16)
(0.00113336 0.000625774 -3.44558e-16)
(0.00165438 0.000825039 1.25596e-16)
(-0.00170495 0.00062302 9.79708e-17)
(0.00162863 0.000642488 0)
(0.001741 0.000810225 -1.26565e-16)
(-0.000287957 0.00248193 -1.90453e-16)
(0.00102649 0.000345316 -2.23906e-16)
(0.00165046 0.000676012 0)
(0.00169563 0.000741192 0)
(0.00163691 0.000696181 -1.87616e-16)
(-0.00171511 0.000587038 0)
(-0.00169327 0.000646214 1.9657e-16)
(-0.000418317 0.00273095 -6.17602e-18)
(-0.00179581 0.000758383 -1.01491e-16)
(-0.00157598 0.000606193 6.10875e-17)
(0.00161919 0.000627201 3.89322e-16)
(-0.00120822 0.00372748 -1.46076e-16)
(0.00277063 0.00109038 -1.97875e-16)
(0.00157247 0.000701203 -2.12584e-16)
(-0.00168291 0.000649896 9.64303e-17)
(-0.0016832 0.00078057 -1.21773e-17)
(-0.00164843 0.000755412 -1.89494e-16)
(0.00164676 0.000627957 2.09789e-16)
(-0.00168678 0.000642144 0)
(-0.00170071 0.000628034 9.90846e-17)
(-0.00193509 0.00069901 1.50958e-16)
(-0.00170862 0.000805439 0)
(-0.00168402 0.000763475 0)
(0.00175491 0.000798088 -1.23283e-16)
(0.00156451 0.000608127 0)
(-0.00169823 0.0006452 0)
(0.00158394 0.000588883 0)
(-0.00166416 0.000749286 1.18323e-17)
(-0.00168223 0.000742552 7.54735e-19)
(0.00153957 0.000521781 0)
(0.00166764 0.000633218 1.9289e-16)
(-3.58189e-05 0.00227271 0)
(0.00164117 0.000554749 0)
(-0.00170632 0.000625909 4.92537e-17)
(-0.00171689 0.000615769 -3.01483e-16)
(0.000176512 0.00101371 0)
(-0.00168899 0.000648319 -1.93418e-16)
(-0.00175034 0.000392389 9.23818e-17)
(-0.00174961 0.000690344 -4.27246e-21)
(-0.0018202 0.000618435 -2.43396e-16)
(-0.0019357 0.00068534 1.5116e-16)
(-0.00166581 0.000780478 0)
(-0.00171847 0.000595687 2.02115e-16)
(-0.00168728 0.000648255 1.00295e-16)
(0.00165937 0.0006256 0)
(-0.00167158 0.000582842 1.62545e-16)
(-0.00169324 0.000635643 -2.68739e-16)
(2.20354e-05 0.00221131 0)
(-0.00165757 0.000742947 -2.80436e-16)
(-0.0017163 0.000694952 0)
(-0.00170613 0.000635684 0)
(0.00168944 0.000626889 2.03117e-16)
(-0.00169969 0.000622018 1.01385e-16)
(0.00147779 0.00054029 2.14782e-16)
(0.00169021 0.000677957 -2.03931e-16)
(-0.00119693 0.000577247 0)
(-0.00180418 0.000607531 0)
(-0.00168973 0.000648833 0)
(0.00165499 0.000642814 -2.12709e-16)
(0.00166648 0.000704381 0)
(0.001666 0.000637529 0)
(-0.00181098 0.000785759 -2.99363e-16)
(0.000224332 0.00224387 2.17984e-16)
(-0.00167402 0.000774079 1.92279e-16)
(0.00170656 0.000527393 -2.15588e-16)
(-1.93904e-05 0.00118287 -6.19432e-17)
(-0.00169881 0.000662513 0)
(-0.00169543 0.00071653 2.99755e-16)
(-0.00162578 0.000759974 -1.80339e-16)
(0.000159635 0.00173022 1.08287e-16)
(0.00174507 0.000371959 0)
(0.00181229 0.000482339 1.14707e-16)
(0.00159847 0.000679179 1.77801e-16)
(-0.0003447 0.000262229 2.10734e-16)
(-0.00169199 0.000630614 -9.0393e-17)
(0.00166963 0.000659358 0)
(0.00103624 0.000388687 0)
(0.0014209 0.000441156 3.86489e-16)
(-0.00169166 0.000650547 0)
(0.00175494 0.000576481 -1.07229e-16)
(-0.00180389 0.000476793 1.26093e-16)
(-0.0017023 0.000648102 9.58119e-17)
(0.00161256 0.000646892 -1.95167e-16)
(-0.00189624 0.000715115 -1.35979e-16)
(-0.0015821 0.000660588 1.84899e-16)
(-0.0018526 0.000852669 1.01008e-16)
(-0.00126459 0.00049431 -1.08943e-16)
(-0.0017068 0.000644545 0)
(-0.00169918 0.000646374 0)
(-0.000100876 0.000851052 0)
(-8.45128e-06 0.00220676 -2.5098e-16)
(-0.00181712 0.000644826 0)
(-0.00171733 0.00084 -8.72302e-17)
(0.00164482 0.000641262 3.76163e-16)
(0.00158126 0.000669931 -1.11175e-16)
(0.00164591 0.000592575 3.79528e-16)
(0.00166739 0.000703459 -5.49153e-17)
(0.00165758 0.000629671 -5.54946e-21)
(-0.00168419 0.000678287 -4.91289e-17)
(-0.00168927 0.000655475 -9.63666e-17)
(-0.000137612 0.00260983 5.97388e-18)
(-0.00169495 0.000652462 -1.95296e-16)
(-0.001684 0.000703649 -5.1503e-17)
(0.00158367 0.000686571 0)
(-0.0016983 0.000651674 -9.75868e-17)
(-0.00179243 0.000659713 -3.58919e-16)
(-0.00164573 0.000740201 -1.39394e-17)
(-0.00170752 0.000638917 0)
(-0.0017214 0.000562678 4.83496e-17)
(-0.00169833 0.000628912 -9.87667e-17)
(0.00180352 0.000794698 -2.08723e-16)
(-0.00168585 0.000667887 -9.94715e-17)
(0.000224981 0.00250262 6.96546e-18)
(0.00161802 0.000590825 2.44311e-17)
(-4.82317e-05 0.00247936 -1.98859e-16)
(-0.00188186 0.000763505 2.8235e-16)
(-0.00164077 0.00055402 -3.98528e-16)
(0.00165647 0.00063947 1.03054e-16)
(-0.0018852 0.000764043 1.25936e-16)
(0.000252847 0.00129907 8.1133e-17)
(-0.00168046 0.000665852 1.9798e-16)
(0.00160812 0.000554316 1.7667e-16)
(-1.84097e-05 0.00243335 0)
(-4.71026e-05 0.00217875 -2.83924e-16)
(-0.00168698 0.00069674 -1.57228e-16)
(0.00163086 0.000556757 -5.19584e-17)
(-1.90854e-05 0.00242695 7.90269e-19)
(0.00198321 0.00078827 9.76705e-17)
(-0.0015637 0.00062381 2.95297e-16)
(-0.00170347 0.000647138 -5.09884e-17)
(-0.00172272 0.000615925 0)
(-0.00177132 0.00065508 2.2903e-16)
(0.00163503 0.000660176 -2.02296e-16)
(-0.00168954 0.000657263 -9.68011e-17)
(0.00163668 0.000643147 0)
(-3.94382e-06 0.00241341 -2.01871e-16)
(-0.00178112 0.000686739 1.20769e-16)
(0.00189952 0.00170536 -3.66324e-16)
(0.00167786 0.000638019 0)
(-1.08061e-05 0.00241386 0)
(0.00172305 0.000691675 5.95424e-21)
(6.92067e-06 0.00240703 -2.02109e-16)
(3.80135e-06 0.00241217 4.01901e-16)
(-0.0016843 0.000660637 4.98491e-17)
(-0.000150003 0.00248464 1.97706e-16)
(-6.45953e-06 0.00240508 0)
(-1.56045e-05 0.00241652 2.01155e-16)
(-0.00168605 0.000657265 0)
(0.00193559 0.00109164 0)
(7.67511e-06 0.00241018 0)
(-3.7812e-06 0.00240979 -2.01438e-16)
(-0.00168007 0.000688324 0)
(-8.51292e-06 0.00241167 4.0527e-16)
(-0.00169965 0.000643412 0)
(-3.57798e-06 0.0024113 -2.02418e-16)
(-0.00168736 0.000657089 -2.93182e-16)
(-4.29494e-06 0.00240352 0)
(-0.00167058 0.000692269 9.67024e-17)
(-0.000758609 0.00276022 -4.71363e-17)
(0.00176031 0.000779348 2.50256e-16)
(0.00178634 0.000672515 0)
(4.82398e-07 0.00240879 1.4528e-20)
(-9.40556e-06 0.00241288 -1.99388e-16)
(-0.00171126 0.000571907 -8.51745e-17)
(0.00161468 0.000722178 -2.05743e-16)
(0.00147547 0.000597103 0)
(0.00164758 0.000631075 3.10262e-16)
(-1.81707e-06 0.0024102 2.01998e-16)
(-0.00168002 0.000660089 0)
(-5.92446e-05 0.00243708 2.00562e-16)
(-1.68353e-06 0.00240484 0)
(-4.17361e-06 0.00240848 -2.04879e-16)
(-0.00169351 0.000660009 0)
(0.00166016 0.000697423 1.95265e-16)
(-0.00169897 0.000649851 2.68341e-21)
(6.45169e-07 0.00240416 2.02884e-16)
(0.00168341 0.000616308 -4.19348e-16)
(0.000245104 0.00144318 0)
(-8.64775e-06 0.00241266 0)
(0.00186766 0.000862674 1.46624e-16)
(0.00163881 0.00057481 0)
(-0.000189461 0.00258508 0)
(-0.00169627 0.000642317 -3.52289e-16)
(-6.46699e-05 0.00246855 0)
(-0.00168888 0.000656501 9.75568e-17)
(-0.00143273 0.00122273 -5.25372e-17)
(-0.00168111 0.000688878 2.01111e-16)
(5.9044e-07 0.00240521 -4.04622e-16)
(-0.00172763 0.000626719 5.4157e-17)
(-0.0016691 0.00069197 1.92963e-16)
(-2.97074e-06 0.00240738 0)
(-5.96631e-06 0.00240379 -1.98248e-16)
(0.00156743 0.000536613 0)
(7.48748e-07 0.00240897 -2.04205e-16)
(1.40774e-06 0.00240734 0)
(-0.000112713 0.00250315 2.01274e-16)
(1.0663e-05 0.00218726 -2.27203e-16)
(-0.00162278 0.00068413 1.17405e-16)
(-3.49391e-05 0.0024414 9.81723e-20)
(0.00119767 0.00035217 0)
(-0.00172593 0.000633556 7.99847e-17)
(-0.00162561 0.000698473 4.68852e-17)
(5.01452e-06 0.00240278 4.05012e-16)
(-9.56642e-06 0.00241166 2.016e-16)
(-0.00172578 0.000657463 -4.65996e-16)
(1.5211e-06 0.0024061 2.02682e-16)
(0.00153373 0.000497761 6.75798e-21)
(-1.22493e-05 0.00240699 2.006e-16)
(-0.00170383 0.000647184 0)
(-0.00167945 0.000673853 5.12177e-17)
(-1.333e-06 0.0024078 -1.45949e-20)
(0.00163664 0.000798796 2.1008e-16)
(-0.0016955 0.000660445 -1.02841e-16)
(-0.00167176 0.000688305 -8.98991e-17)
(-5.94956e-06 0.00241073 -2.01523e-16)
(0.00164713 0.000645414 3.51592e-18)
(-4.26504e-07 0.00240879 -1.45989e-20)
(-0.00170752 0.000645299 4.80862e-17)
(7.79863e-06 0.00240453 0)
(-0.00169861 0.000642293 0)
(-1.39587e-05 0.00241072 -2.01465e-16)
(1.21308e-06 0.00240772 2.02264e-16)
(0.00164718 0.00068301 -2.45278e-17)
(-0.00173314 0.000591849 2.19719e-16)
(-1.25892e-05 0.00240732 1.9977e-16)
(3.0225e-06 0.00240426 0)
(-0.00168372 0.000683061 0)
(-0.00167572 0.000689241 1.53401e-16)
(-0.00172872 0.000553754 0)
(-8.6669e-05 0.00149172 -1.08308e-16)
(-4.61103e-07 0.00240856 2.02708e-16)
(-0.00167183 0.00068686 -1.45371e-16)
(-0.00168683 0.000656222 0)
(-0.00167803 0.000639191 5.30124e-17)
(-2.26433e-05 0.00241568 1.97005e-16)
(1.52153e-07 0.00240509 -1.46724e-20)
(-0.00168981 0.000646246 -5.14124e-17)
(0.000978957 0.00011791 -2.18993e-16)
(-2.14321e-05 0.00242093 -2.00424e-16)
(-6.81341e-06 0.00241125 2.02103e-16)
(3.44987e-06 0.00240522 2.0298e-16)
(-2.30712e-07 0.00241276 -2.00154e-16)
(0.00200924 0.00101769 -1.92046e-16)
(-1.42011e-05 0.00240739 -2.01107e-16)
(-0.00170163 0.00064067 0)
(-0.0016546 0.000600787 0)
(0.00159048 0.000607974 0)
(-3.68165e-06 0.00240492 -2.03568e-16)
(-0.00166961 0.000691598 2.48141e-16)
(0.00163061 0.000607626 -1.5715e-16)
(-0.00161754 0.000654751 2.71352e-16)
(-0.00168932 0.000655573 -1.96915e-16)
(-0.00169184 0.000653664 -1.01262e-16)
(-0.00182346 0.000858472 -1.00454e-16)
(-6.83152e-06 0.00240651 -4.0579e-16)
(6.57757e-06 0.00240501 8.46294e-20)
(-0.00170407 0.000699643 -5.80042e-17)
(-0.00169289 0.000679671 4.59956e-17)
(-0.00169231 0.000658036 -5.05264e-17)
(9.63121e-06 0.00240795 -2.02615e-16)
(2.06939e-06 0.00240498 4.10222e-16)
(-1.17336e-05 0.00240757 -2.0296e-16)
(2.07212e-06 0.00240756 -7.95361e-19)
(-0.00168761 0.000669772 4.91292e-17)
(-8.17927e-06 0.0024062 0)
(1.14681e-05 0.00240675 -2.03782e-16)
(7.86456e-06 0.00240415 2.02749e-16)
(9.88831e-06 0.00240807 3.50538e-20)
(-0.00169455 0.000635989 1.02069e-16)
(-1.35851e-05 0.00242096 0)
(-0.00169512 0.000644657 -2.00615e-16)
(-0.00172961 0.000627026 0)
(0.00165813 0.00063521 -2.22457e-16)
(-9.18011e-07 0.00240651 -1.57903e-18)
(0.00159116 0.000633792 1.97902e-16)
(1.51315e-06 0.00240698 -1.45327e-20)
(-0.000147564 0.00246994 0)
(-9.8142e-05 0.00243845 -1.99269e-16)
(-0.00169457 0.000646973 0)
(-0.00170865 0.00064466 -9.86555e-17)
(1.64026e-05 0.00240417 0)
(-0.00168098 0.000651992 -2.14072e-16)
(-0.00169022 0.000662566 -1.06354e-16)
(0.00164955 0.000655861 2.1374e-16)
(9.31819e-07 0.00240521 -2.03082e-16)
(-1.36827e-05 0.00240765 -2.03158e-16)
(-0.00169807 0.000677192 5.55533e-17)
(-2.58821e-06 0.00240727 -2.00305e-16)
(-0.00167433 0.000636248 3.11584e-16)
(-1.10517e-05 0.00240574 -2.02289e-16)
(3.44429e-06 0.00240707 -1.45601e-20)
(-0.00167439 0.000706828 -2.36557e-16)
(-1.4957e-05 0.00240714 2.00628e-16)
(0.00166133 0.000628417 0)
(-0.00168779 0.000660067 -5.02508e-17)
(-8.87269e-07 0.002406 3.18889e-18)
(-0.00169805 0.000635207 1.00774e-16)
(-4.03188e-07 0.00240537 -1.60072e-18)
(-0.00168828 0.000648382 5.04602e-17)
(-0.00159418 0.000595317 0)
(6.31754e-06 0.00240707 -1.46316e-20)
(-0.00184191 0.000776337 3.00915e-16)
(1.4513e-06 0.00240831 2.04469e-16)
(0.00152585 0.000778355 -5.87772e-17)
(-0.00160945 0.000720882 1.95204e-16)
(-5.27101e-07 0.00240681 2.04614e-16)
(0.00123063 0.000483752 2.15025e-16)
(-3.14563e-06 0.00240685 2.03319e-16)
(1.85764e-06 0.00240727 3.17268e-18)
(0.00141078 0.000515263 2.27231e-16)
(0.00151339 0.00052924 -2.12539e-16)
(0.00172072 0.000682731 0)
(-0.00179922 0.000733444 0)
(-1.37746e-05 0.00240703 -1.59106e-18)
(0.00156698 0.000593345 2.79969e-16)
(-1.33014e-05 0.00240579 -1.57971e-18)
(-0.00169198 0.000654855 -9.82422e-17)
(0.00153609 0.000529084 0)
(1.25369e-05 0.00240596 -4.05552e-16)
(2.04594e-06 0.0024063 -4.08067e-16)
(-0.00168291 0.000678454 0)
(-0.00169414 0.000634788 0)
(1.4069e-06 0.00240816 -4.05518e-16)
(-4.81458e-05 0.00243111 0)
(-0.00168268 0.000693231 -1.95479e-16)
(-3.23631e-05 0.00242014 -4.00512e-16)
(-0.00153797 0.000554577 0)
(0.00173706 0.000561883 5.24845e-17)
(1.77765e-07 0.00240381 -1.60739e-18)
(5.46666e-06 0.00240892 2.0431e-16)
(0.00131668 0.000820359 -7.03675e-18)
(6.40578e-07 0.00240627 -2.04792e-16)
(-0.00170374 0.000627293 1.57437e-16)
(-0.00178758 0.000829021 1.38982e-16)
(-1.48048e-05 0.00240664 2.01867e-16)
(-0.00169805 0.000634678 1.45748e-16)
(-2.62689e-06 0.00240739 2.04812e-16)
(-1.37479e-05 0.00240609 -2.02605e-16)
(-1.55202e-05 0.00240629 -2.01907e-16)
(-0.00167638 0.00068174 0)
(-0.00169578 0.000637141 -4.98681e-17)
(-1.70088e-06 0.00240584 -7.9878e-19)
(1.41736e-05 0.00240676 0)
(-0.00167406 0.000679293 1.98688e-16)
(-0.00168811 0.000637183 0)
(2.1786e-06 0.00240562 -2.03401e-16)
(-1.16236e-05 0.00241408 3.1623e-18)
(0.00164667 0.000639844 -2.14734e-16)
(2.17021e-06 0.00240661 -4.10851e-16)
(-0.0018182 0.000717313 3.41574e-16)
(-8.83186e-07 0.00240645 0)
(-7.86822e-07 0.00240764 2.0276e-16)
(-4.6353e-07 0.00240672 0)
(-1.10142e-07 0.002407 2.0282e-16)
(1.75884e-06 0.0024061 -2.02307e-16)
(0.00141789 0.000550482 1.21377e-16)
(6.44759e-07 0.00240567 2.02449e-16)
(1.10977e-06 0.00241094 -1.46569e-20)
(-2.83001e-08 0.00240642 2.04802e-16)
(-1.60964e-05 0.00240675 4.04646e-16)
(-0.00169662 0.000648129 0)
(-0.0016949 0.000653693 -5.25275e-17)
(-1.39959e-05 0.0024064 0)
(-3.19172e-07 0.00240655 0)
(-1.61696e-06 0.00240558 -2.06612e-16)
(1.42132e-05 0.00240749 2.03098e-16)
(1.17402e-05 0.00240766 2.03863e-16)
(-0.00169151 0.000657966 2.57696e-16)
(1.26469e-05 0.0024064 2.03294e-16)
(-9.26976e-07 0.00240742 -2.04793e-16)
(-2.30562e-06 0.00240662 0)
(-6.31414e-07 0.00240643 -1.47058e-20)
(-0.00169516 0.000653219 1.00376e-16)
(1.40607e-05 0.00240668 0)
(1.32623e-05 0.00240595 2.03436e-16)
(-5.64597e-06 0.00241111 -2.05257e-16)
(-0.00170091 0.000634473 0)
(-2.22416e-08 0.00240649 0)
(0.00166221 0.000639534 -2.13231e-16)
(-2.96944e-07 0.00240809 1.59879e-18)
(-2.34309e-07 0.00240862 -3.98538e-19)
(-1.15216e-05 0.00240445 -7.92066e-19)
(-1.55607e-05 0.00240607 1.46013e-20)
(-1.25662e-05 0.00240518 7.92714e-19)
(-0.00168822 0.000730315 -1.24095e-16)
(-1.49991e-05 0.00240499 2.0361e-16)
(8.0366e-06 0.00240567 0)
(-1.46966e-05 0.00240531 2.02162e-16)
(-1.48773e-05 0.00240576 -2.02508e-16)
(-1.5684e-05 0.00240675 -2.03449e-16)
(-0.00204453 0.00167226 -3.08462e-16)
(-0.000389805 0.000482582 -3.84298e-16)
(1.44796e-05 0.00240702 -2.03714e-16)
(-1.44409e-06 0.00240706 -2.03072e-16)
(1.68562e-07 0.0024076 -2.03026e-16)
(1.30024e-05 0.00240591 2.03498e-16)
(-0.0017036 0.000642639 -2.02474e-16)
(-1.66779e-05 0.00240553 2.0214e-16)
(-1.39348e-06 0.00240687 -2.0269e-16)
(-1.09837e-05 0.00241146 -4.03167e-16)
(-1.26411e-06 0.00240608 -1.60329e-18)
(1.54677e-05 0.00240598 2.02728e-16)
(0.00164932 0.000632686 2.13265e-16)
(-5.14229e-06 0.00240759 -2.02729e-16)
(9.45564e-07 0.00240642 -1.45896e-20)
(0.00175711 0.000725698 -2.63006e-16)
(-5.15987e-07 0.00240633 0)
(-1.08245e-06 0.00240641 0)
(-1.65847e-05 0.00240605 -4.06253e-16)
(-0.00169502 0.000650523 1.00717e-16)
(3.08903e-07 0.00240502 -4.00492e-19)
(-1.92426e-05 0.00240685 2.12278e-19)
(0.00166012 0.000615284 1.41756e-17)
(-1.7695e-05 0.00240795 2.03075e-16)
(1.75211e-05 0.00240694 2.03048e-16)
(1.60327e-05 0.00240656 -2.02901e-16)
(4.0264e-06 0.0024063 -2.03471e-16)
(-1.88059e-05 0.00240707 1.45944e-20)
(-0.00176199 0.000628745 -2.15474e-16)
(-0.00145155 0.000563697 2.65478e-16)
(-1.63617e-06 0.00240411 -1.46743e-20)
(-1.04755e-06 0.00240694 -2.0259e-16)
(-0.0016798 0.00068205 5.11237e-17)
(1.52739e-06 0.0024058 -1.4706e-20)
(-1.7343e-05 0.0024053 8.05149e-19)
(1.74212e-05 0.00240606 -4.06042e-16)
(7.99915e-06 0.00240381 2.03833e-16)
(1.4807e-05 0.00240562 -2.03831e-16)
(1.45593e-05 0.00240614 -2.03826e-16)
(1.73951e-05 0.00240638 2.03125e-16)
(1.45178e-05 0.00240573 1.98679e-19)
(1.72645e-05 0.00240644 0)
(0.00166218 0.00062849 0)
(-1.40682e-05 0.00240658 2.04488e-16)
(-1.14006e-06 0.00240909 0)
(3.15687e-06 0.00240813 2.03737e-16)
(1.73021e-05 0.00240636 0)
(1.72291e-05 0.00240656 2.03193e-16)
(1.74531e-05 0.00240619 -9.91912e-20)
(1.81638e-06 0.00240829 1.99363e-16)
(1.56815e-05 0.00240739 0)
(-4.54768e-06 0.00240881 0)
(-1.46214e-05 0.0024084 -2.04708e-16)
(-0.00169156 0.000653129 -2.47575e-21)
(1.54006e-05 0.00240629 0)
(-3.54777e-05 0.00244751 0)
(1.51315e-05 0.00240632 0)
(-0.00165213 0.000630395 1.5717e-16)
(1.19079e-06 0.00240719 -2.02842e-16)
(-1.08881e-05 0.00241155 2.04681e-16)
(1.58224e-05 0.0024077 -9.94048e-20)
(-0.00165969 0.000692488 5.56766e-17)
(-0.001682 0.000683691 -5.0832e-17)
(1.38383e-05 0.00240728 -2.0382e-16)
(-4.173e-06 0.00240262 0)
(-5.8084e-07 0.00241054 -2.039e-16)
(1.40329e-05 0.00240744 1.46464e-20)
(1.73928e-05 0.00240609 -2.0366e-16)
(-1.63344e-06 0.00240082 4.05041e-16)
(0.00159979 0.000552172 -3.65595e-16)
(0.00165661 0.000640486 -4.30919e-16)
(-2.4348e-06 0.00240721 4.07251e-16)
(0.00163649 0.000645715 0)
(1.37e-05 0.00240743 0)
(1.76743e-05 0.0024057 -3.96997e-19)
(-0.00172204 0.000681418 -1.84022e-16)
(-0.0016886 0.000690224 1.05905e-16)
(1.08384e-06 0.00240549 -1.00204e-19)
(1.38342e-05 0.00240763 2.03871e-16)
(1.46807e-06 0.00240644 -2.0313e-16)
(-0.001544 0.0014752 1.02777e-16)
(1.30999e-05 0.00240736 7.96847e-19)
(-1.69567e-05 0.00240783 2.03302e-16)
(-1.3976e-06 0.00240967 2.04072e-16)
(-0.00192789 0.000986709 -2.015e-16)
(1.35326e-05 0.00240811 0)
(-9.83746e-07 0.00240671 4.01574e-19)
(-3.69663e-06 0.00240894 -2.03105e-16)
(-0.00169596 0.000643032 0)
(0.00170427 0.000466987 3.85786e-16)
(-0.00166925 0.000692617 5.3668e-17)
(1.29457e-05 0.0024076 -7.96978e-19)
(1.81931e-06 0.00240723 -2.03829e-16)
(-1.50915e-05 0.00240502 -2.03657e-16)
(-0.00168833 0.000677933 3.04096e-16)
(1.29885e-05 0.00240841 -2.0409e-16)
(-1.98e-05 0.00240593 7.93021e-19)
(1.03967e-06 0.00240544 2.00591e-19)
(1.61139e-05 0.00240599 0)
(-4.76971e-07 0.00241017 0)
(1.63312e-05 0.00240582 0)
(1.70754e-06 0.00240721 0)
(-0.00169109 0.000642699 -5.05807e-17)
(-1.77885e-05 0.00240507 0)
(-1.17825e-06 0.00240657 0)
(0.00178811 0.000833163 1.5751e-16)
(1.10982e-06 0.00240728 0)
(-9.70901e-05 0.00250591 0)
(-4.73661e-07 0.00241006 4.0801e-16)
(8.74533e-07 0.00240546 0)
(0.00164626 0.000606042 -4.81147e-17)
(0.00165688 0.000643344 0)
(0.00149444 0.00072983 1.05924e-16)
(0.00162584 0.000588335 -2.06199e-16)
(1.88227e-06 0.00240708 -4.07224e-16)
(-0.00153184 0.000662809 0)
(7.53531e-07 0.00240733 -1.99181e-19)
(-0.00167965 0.000679246 -9.91584e-17)
(1.81322e-05 0.00240614 0)
(0.000821758 0.00093985 0)
(2.99543e-07 0.00240665 -4.02032e-19)
(1.49033e-06 0.00241267 -1.26935e-17)
(0.000619134 0.0014806 -7.05267e-18)
(1.61157e-05 0.00240469 0)
(1.9363e-06 0.00240656 0)
(-0.00168727 0.000663634 0)
(-7.83827e-07 0.0024069 4.06411e-16)
(-6.9521e-07 0.00240749 0)
(0.00165318 0.000634311 3.89355e-21)
(0.000468408 0.00138816 0)
(-8.24937e-08 0.00240683 4.14445e-19)
(-2.01762e-07 0.00240801 -2.04146e-16)
(1.22287e-06 0.00240627 -2.03126e-16)
(1.02064e-06 0.0024056 -4.02706e-19)
(4.45224e-07 0.00240589 0)
(9.29363e-07 0.00240846 1.47221e-20)