/*--------------------------------*- C++ -*----------------------------------*\
  =========                 |
  \\      /  F ield         | OpenFOAM: The Open Source CFD Toolbox
   \\    /   O peration     | Website:  https://openfoam.org
    \\  /    A nd           | Version:  12
     \\/     M anipulation  |
\*---------------------------------------------------------------------------*/
FoamFile
{
    format      ascii;
    class       surfaceScalarField;
    location    "0.08";
    object      phi;
}
// * * * * * * * * * * * * * * * * * * * * * * * * * * * * * * * * * * * * * //

dimensions      [0 3 -1 0 0 0 0];

internalField   nonuniform List<scalar> 
6438
(
-1.31183e-08
1.62319e-06
-1.61007e-06
-1.44237e-08
1.88552e-06
-1.8711e-06
-1.76604e-06
-2.9734e-07
2.06338e-06
1.67555e-06
-1.83799e-06
1.62444e-07
2.57931e-06
-2.01381e-06
-5.65492e-07
5.91937e-07
1.98737e-06
-2.00213e-06
2.36082e-07
-1.74249e-06
1.72807e-06
1.87978e-06
-2.24695e-06
3.67173e-07
1.75004e-06
-2.04995e-06
2.99913e-07
-1.69381e-06
2.05517e-06
-3.6136e-07
4.07966e-07
-1.85909e-06
1.45112e-06
-2.08913e-06
3.95318e-07
1.6082e-06
7.39332e-07
-2.34753e-06
1.51053e-06
-1.52365e-06
-8.44359e-08
1.76901e-06
-1.68457e-06
-2.23006e-06
2.16127e-06
6.87938e-08
-1.68919e-06
2.04772e-06
-3.58529e-07
-2.08594e-06
3.96752e-07
6.63171e-07
1.40598e-06
-2.06915e-06
-4.84422e-07
-3.17247e-07
8.01668e-07
-1.0385e-07
1.85537e-06
-1.75152e-06
-1.71783e-06
-2.79332e-07
1.99716e-06
-2.10013e-06
9.23284e-07
1.17684e-06
-1.8281e-06
1.72425e-06
-1.6235e-06
1.97492e-06
-3.51418e-07
-1.9772e-06
2.59371e-07
1.88092e-06
-1.47295e-06
-1.70727e-06
-3.15478e-07
2.02274e-06
-2.06006e-06
4.36557e-07
1.5869e-06
-1.98554e-06
3.98637e-07
8.78125e-09
-1.93712e-06
1.92833e-06
1.89401e-06
-1.90331e-06
9.30149e-09
-1.87655e-06
3.17187e-07
1.55937e-06
-2.53846e-06
4.10046e-07
2.12841e-06
1.78312e-06
-1.77434e-06
1.79697e-06
-1.21422e-07
1.16717e-06
1.63296e-06
-2.80013e-06
-5.70782e-07
2.17898e-06
-1.67304e-06
1.83826e-06
-1.65211e-07
-1.94117e-06
1.92258e-06
1.85929e-08
-8.08645e-07
1.47182e-06
1.73525e-06
1.47871e-08
-2.08502e-06
2.04302e-06
4.19989e-08
1.87254e-06
-2.85644e-07
-1.39319e-06
1.30875e-06
-2.42248e-06
4.08668e-07
1.83902e-06
1.78016e-07
-2.01704e-06
-1.43585e-06
-4.40704e-07
-2.61103e-07
-1.72262e-06
1.95526e-06
-2.32641e-07
-1.28999e-06
1.85584e-06
-5.65851e-07
1.85992e-06
-1.85992e-06
5.8255e-07
1.41144e-06
1.85774e-07
-1.59721e-06
8.27249e-07
3.99752e-07
-1.227e-06
1.57625e-06
3.24892e-07
-1.90115e-06
1.52099e-06
-5.97701e-07
-8.81988e-07
-1.54049e-06
-1.77783e-08
1.63904e-06
-1.62126e-06
-2.02316e-06
2.02316e-06
-2.09344e-06
2.11333e-06
-1.98936e-08
8.37289e-08
1.55987e-06
-1.6436e-06
5.95065e-09
-1.91011e-06
1.90416e-06
1.77203e-06
-1.76608e-06
-1.93151e-06
2.24248e-07
-1.93684e-06
-1.48178e-07
-1.66343e-06
1.82698e-06
-1.6355e-07
1.84254e-07
1.59439e-06
-1.77864e-06
-1.95778e-06
1.8831e-06
7.46857e-08
1.90912e-06
-1.90912e-06
1.77619e-06
1.03588e-07
-1.16596e-06
-8.8399e-07
1.66109e-06
3.51709e-07
-2.0128e-06
-1.63125e-06
-3.09925e-07
1.44829e-06
1.12104e-06
-2.56933e-06
-2.24484e-06
1.43619e-06
-1.43466e-06
-8.10179e-07
1.9688e-06
-3.07709e-07
1.17758e-06
-3.50327e-07
1.60097e-06
1.79763e-07
-1.78074e-06
-1.97307e-06
-1.2037e-07
-2.82837e-07
-4.80077e-07
-1.54308e-06
2.13862e-06
-2.13862e-06
-1.41647e-06
-5.41317e-07
-1.29335e-07
-2.40913e-06
-1.8449e-06
1.83832e-06
6.5875e-09
6.64196e-08
-1.87129e-06
1.80487e-06
-2.05697e-07
1.80667e-06
1.8475e-06
4.65094e-08
-1.93001e-06
-3.00055e-07
-1.94765e-06
1.99558e-06
-4.79355e-08
2.03771e-06
-1.13963e-06
-8.98087e-07
1.82639e-06
-1.75997e-06
3.81956e-08
2.05124e-06
-1.04365e-06
-1.00759e-06
1.16467e-06
8.73041e-07
1.87968e-06
-1.87968e-06
-1.44217e-06
2.06696e-06
-6.24787e-07
-1.81097e-06
8.83524e-08
-2.48297e-07
-1.46572e-06
1.71401e-06
-1.69813e-06
6.68829e-08
-1.81925e-06
3.77081e-07
1.56742e-06
3.42567e-07
-1.90999e-06
-1.15277e-07
1.6827e-06
-1.63908e-06
1.89335e-06
-2.54272e-07
-1.73903e-06
6.59834e-08
1.20633e-06
8.44903e-07
1.81436e-06
-3.63233e-07
7.79527e-08
1.78196e-06
-1.56576e-06
-1.32372e-07
1.63555e-06
3.49869e-07
-1.98542e-06
-9.04946e-07
-7.81261e-07
1.68621e-06
1.19159e-06
-1.53435e-07
-1.03816e-06
-1.93712e-06
3.94843e-07
1.93681e-06
-2.33165e-06
-9.0051e-07
4.16088e-07
1.93579e-06
3.91347e-08
2.10432e-06
-1.08939e-06
-1.01493e-06
7.06965e-07
1.39736e-06
1.95335e-06
-3.17801e-07
2.39077e-06
-1.2236e-06
-1.77066e-06
6.58858e-09
1.76407e-06
-2.53433e-06
2.56098e-07
2.27823e-06
-2.96402e-08
-1.76034e-06
1.78998e-06
1.93408e-06
1.08939e-07
-1.49338e-06
1.4756e-06
-1.78121e-06
1.81667e-06
-3.54589e-08
1.80438e-06
-1.83402e-06
1.86232e-06
-1.86232e-06
1.8312e-06
5.43209e-08
1.83561e-06
-4.24173e-07
1.81058e-06
-1.72685e-06
-1.59502e-06
1.34672e-06
1.69279e-08
1.75838e-06
-1.77531e-06
2.07321e-06
-1.45003e-06
-6.23176e-07
-1.91011e-06
-2.79983e-08
2.17934e-08
-1.76429e-06
-1.76537e-06
1.01941e-07
1.96997e-08
1.76342e-06
1.70661e-06
-1.52236e-06
-1.75967e-06
1.20591e-07
1.78442e-06
-4.91658e-08
-6.46736e-08
1.55409e-06
-1.48941e-06
1.22653e-06
8.46676e-07
-1.82939e-06
3.94683e-07
1.43471e-06
1.86422e-06
-8.38035e-09
-2.46718e-06
2.22555e-07
2.24462e-06
-2.53909e-08
-1.75119e-06
1.77658e-06
1.16337e-06
2.82205e-08
1.12144e-07
1.75208e-06
1.73406e-06
1.46861e-07
1.79409e-06
-1.81949e-06
-1.86843e-06
-6.15719e-08
1.90827e-06
-2.05312e-06
1.44849e-07
-1.7037e-06
-6.69607e-08
-2.07454e-06
8.99552e-07
1.17499e-06
-1.05648e-09
1.79263e-06
6.27496e-08
-1.6891e-06
1.96399e-06
-2.74885e-07
-1.85603e-06
1.60155e-06
2.54474e-07
-2.51881e-07
6.49977e-07
-3.98096e-07
-5.83011e-07
-1.47705e-06
-1.87129e-06
-1.50479e-08
1.78708e-06
5.51232e-07
1.51572e-06
-3.04309e-08
-1.81911e-06
-8.98697e-09
-3.89853e-08
-1.98801e-06
1.67883e-06
3.09186e-07
-1.16445e-07
1.48375e-06
2.92441e-07
2.90685e-06
-1.2739e-06
-6.13845e-07
-1.47209e-06
1.82248e-06
2.50142e-08
-1.56186e-06
6.56914e-07
-7.05383e-07
-1.10831e-06
1.8137e-06
-6.27386e-07
-1.46174e-06
-1.01779e-06
2.46608e-06
-1.88144e-06
6.23332e-08
-1.77613e-06
1.78292e-06
-6.78748e-09
-1.46372e-06
1.39904e-06
-2.15856e-08
-1.74058e-06
1.76217e-06
-1.91463e-06
3.31884e-08
1.59527e-06
-1.89791e-06
3.02642e-07
1.77845e-06
-1.80004e-06
1.58788e-06
-6.00264e-07
-9.87614e-07
-2.40386e-06
8.5474e-07
1.54912e-06
1.62785e-06
1.56569e-07
1.34343e-06
8.17837e-07
3.92288e-07
1.74633e-06
-4.68993e-07
-1.66962e-06
-1.93914e-06
1.92148e-06
1.76568e-08
-1.93365e-06
-5.48466e-09
-1.92435e-06
-9.30096e-09
6.85061e-09
5.01321e-07
-2.79942e-06
2.29809e-06
-2.07558e-06
2.47043e-06
1.63935e-06
-1.62242e-06
1.75311e-06
7.32774e-08
1.43019e-07
1.44486e-06
-1.76034e-06
-1.59573e-06
1.58844e-06
1.97299e-07
-1.78574e-06
-8.96976e-09
-3.80796e-07
2.79287e-06
-2.41207e-06
2.64852e-06
-1.90919e-06
-8.04816e-07
1.20457e-06
-5.11282e-07
-1.56326e-06
-1.38643e-06
-1.01742e-06
-1.75908e-06
-1.09352e-07
-1.77271e-06
1.77242e-06
2.83807e-10
-2.78734e-07
1.66223e-06
-1.38349e-06
-1.90501e-06
1.91818e-06
-1.31627e-08
-1.8849e-06
-2.01151e-08
-2.42083e-06
1.52989e-07
2.26784e-06
-1.68924e-06
-1.09626e-07
1.79887e-06
1.89863e-06
1.95419e-08
-3.37127e-07
-2.07261e-06
7.59205e-07
1.31341e-06
1.14125e-08
-1.09696e-06
-9.75652e-07
-2.57186e-08
-1.95479e-08
-1.73e-06
1.74954e-06
-1.7778e-06
8.85572e-08
1.60666e-06
2.1582e-07
1.85121e-06
-1.77326e-06
1.76081e-06
-1.78036e-06
1.75403e-06
5.03553e-08
8.63106e-07
1.78542e-06
1.81881e-06
-3.35058e-07
-1.43816e-07
-2.39051e-06
-1.03058e-07
1.44525e-06
-1.34219e-06
-1.87601e-06
-8.89238e-09
-1.87565e-06
-3.55329e-10
1.89016e-06
-1.87639e-06
-1.37715e-08
1.87029e-06
1.98695e-08
-1.75119e-06
4.3222e-07
-5.9255e-07
1.60331e-07
-2.1181e-06
1.24175e-06
8.76345e-07
9.46622e-07
-1.89851e-06
9.51884e-07
-1.65725e-06
-1.53722e-07
-1.76674e-06
1.75797e-06
8.77164e-09
-1.83607e-06
1.77045e-06
6.56267e-08
-1.46673e-07
1.87919e-06
-1.73252e-06
-1.82309e-06
4.52846e-08
-2.02487e-06
2.52619e-06
-1.86301e-07
-1.64309e-06
-1.90352e-06
1.75685e-06
-1.49146e-06
-1.36601e-07
1.62806e-06
-1.39221e-06
1.85854e-06
1.17481e-08
-1.26902e-06
-3.40291e-07
3.7742e-07
-3.71283e-08
-1.71117e-08
6.88738e-08
-2.41538e-06
2.34651e-06
-1.34865e-06
-6.53471e-07
-1.88282e-06
1.84552e-06
3.72962e-08
-1.85406e-06
-2.87531e-08
-6.65505e-07
4.13624e-07
1.75075e-06
4.33495e-08
1.86466e-06
-3.04788e-07
1.85303e-06
-1.85163e-06
-1.39951e-09
-4.83659e-09
-1.71649e-06
1.72133e-06
1.9413e-06
-1.39007e-06
-2.33542e-08
1.91843e-06
1.08768e-06
-3.00611e-06
1.89996e-06
-1.89996e-06
2.96695e-07
1.72647e-06
-6.70726e-07
-1.18919e-06
-1.51626e-06
1.82779e-06
-3.11534e-07
-1.99299e-07
-1.63677e-06
1.75186e-06
-1.7567e-06
-1.67633e-06
2.67193e-08
1.64961e-06
3.22365e-07
-1.70092e-06
1.37855e-06
-1.76137e-06
1.74262e-06
1.87569e-08
1.12712e-06
8.14177e-07
-5.4721e-08
-2.8557e-07
-1.06071e-06
-1.05739e-06
-4.10721e-07
-1.88049e-06
1.91383e-07
-1.74058e-06
1.57716e-06
3.31105e-07
-1.46118e-06
-1.64419e-06
1.52733e-07
-1.67801e-06
9.72628e-07
1.90414e-06
-1.54759e-06
-3.56554e-07
3.24304e-07
1.52691e-06
-1.34127e-06
-6.35931e-07
-1.86072e-06
1.86072e-06
1.86326e-06
-1.79239e-06
-7.08746e-08
1.06308e-07
-1.76356e-06
-1.49026e-06
1.68483e-06
-1.94569e-07
-5.88876e-07
2.71629e-07
1.73513e-06
-1.74372e-06
8.5964e-09
1.82606e-06
1.94586e-08
1.84281e-06
2.04515e-08
2.78154e-06
-1.77519e-06
-4.78978e-08
-1.55764e-06
1.27891e-06
1.74787e-06
3.05773e-08
1.83771e-06
-1.82817e-06
-9.54283e-09
-1.63498e-08
-2.55697e-08
1.92979e-07
-1.57607e-06
1.38309e-06
-5.4164e-08
-2.41301e-06
5.77311e-07
1.28071e-07
-1.61833e-06
-1.7568e-06
1.7298e-06
2.70044e-08
1.75172e-06
-1.5645e-07
-8.157e-07
-1.08761e-06
-2.45638e-06
1.81759e-07
-9.86575e-07
-2.9205e-07
8.50003e-09
1.8047e-06
-1.6074e-06
-1.73e-06
-1.73255e-06
4.5385e-08
1.68716e-06
2.44488e-06
3.47992e-07
1.41032e-06
7.0301e-07
1.70636e-06
-7.59736e-07
1.77988e-06
-1.0105e-07
4.09352e-06
-3.00584e-06
-2.79942e-06
-8.98352e-07
-9.57677e-07
-2.30188e-08
1.89976e-06
-1.78001e-06
-1.19747e-07
1.80197e-06
4.08385e-08
2.085e-07
-1.72476e-06
-1.2794e-06
1.47238e-06
1.74527e-06
1.55413e-08
1.36468e-06
6.04112e-07
1.83139e-06
6.83742e-08
1.83028e-06
-1.80413e-06
-2.61474e-08
-8.26527e-07
-1.15901e-06
-8.26282e-08
1.68418e-06
3.11197e-08
-1.94024e-06
1.51738e-06
-1.19502e-06
-2.61968e-08
3.78873e-08
1.48259e-06
-1.60828e-06
1.25692e-07
2.72175e-07
1.55561e-06
2.48108e-06
-2.4122e-06
8.64228e-07
1.09103e-06
-1.75172e-06
1.7321e-06
1.96148e-08
-4.00628e-08
-1.02027e-06
5.60818e-07
4.59455e-07
-1.86795e-08
1.90204e-06
-1.90204e-06
2.15584e-06
-1.25196e-06
-9.03887e-07
-1.56996e-06
-2.68029e-07
1.32524e-06
6.2811e-07
1.8215e-06
9.88654e-09
-1.71649e-06
1.70291e-06
1.10517e-08
-1.71396e-06
1.39286e-06
1.94024e-06
-1.92833e-06
4.86581e-08
2.26505e-06
-2.00895e-06
1.75178e-06
-1.86082e-06
1.74247e-06
-3.9568e-08
1.57206e-06
-1.70275e-06
1.69417e-06
8.57759e-09
7.80221e-08
1.36725e-06
-1.44528e-06
-1.54707e-06
1.27873e-06
-1.15358e-07
1.61637e-06
2.21888e-07
-1.59941e-08
-1.49863e-06
-2.61045e-07
-2.24778e-06
1.42126e-06
4.33065e-09
-1.70803e-06
-1.81733e-06
-8.61921e-08
2.43142e-06
-1.31038e-06
1.73715e-08
-3.1558e-07
1.93395e-06
-1.61837e-06
-8.25718e-07
-1.94555e-07
1.69553e-06
-1.71329e-06
1.77556e-08
-1.75178e-06
1.74035e-06
7.5504e-07
1.07604e-06
-1.83108e-06
1.8186e-06
-3.3601e-07
1.49114e-07
1.61989e-06
1.78758e-06
1.76406e-07
1.94743e-07
2.37476e-07
-1.90416e-06
4.18357e-08
-1.50955e-06
1.71805e-06
-8.75299e-07
1.05706e-06
1.61406e-07
-1.58616e-06
1.42475e-06
-1.34997e-08
3.07605e-08
-1.58132e-06
-1.80209e-06
1.76856e-06
3.35305e-08
-1.72614e-06
1.78556e-07
1.12947e-06
1.02638e-06
-9.70935e-07
1.99007e-06
-1.01914e-06
1.99783e-06
-1.86477e-06
-1.33065e-07
5.09437e-08
1.22779e-06
-1.71436e-06
-1.81896e-08
1.74e-06
2.47694e-09
8.5755e-07
-2.96732e-07
2.21467e-06
-1.99211e-06
1.5798e-06
2.47177e-07
9.91782e-08
-1.7664e-06
2.67773e-07
2.64241e-08
-1.53598e-06
1.97176e-06
-1.59468e-06
1.607e-06
-9.76384e-08
-1.53031e-06
1.62795e-06
-1.73202e-06
1.80443e-06
-2.15114e-08
-2.62361e-06
2.11533e-07
-1.15321e-08
1.69889e-06
3.32106e-08
-1.60122e-06
-1.76102e-06
1.75402e-06
7.00142e-09
2.11111e-06
-1.22852e-06
-8.82592e-07
-1.4759e-06
-1.33305e-07
1.60921e-06
-3.72494e-09
-1.737e-06
3.75025e-08
-1.89246e-07
1.85911e-06
-1.66987e-06
-1.70421e-06
1.71281e-06
-2.47499e-06
-3.60424e-07
-2.39264e-06
2.33234e-06
6.03012e-08
1.36263e-06
6.9254e-07
1.59576e-06
1.44225e-07
-1.73999e-06
1.69725e-06
-6.93994e-08
1.36562e-06
6.82091e-07
-1.21277e-06
3.8705e-07
-1.7178e-06
1.49011e-06
-1.6958e-06
-2.3045e-06
2.29621e-06
8.28932e-09
2.07845e-06
-1.66841e-06
1.69927e-06
-5.09297e-09
1.04909e-07
-1.58494e-06
1.48003e-06
-2.56282e-08
-2.27887e-06
2.05864e-06
-2.05864e-06
-9.38531e-07
1.76633e-06
-8.278e-07
-1.69962e-06
1.69962e-06
1.73912e-06
-1.53693e-06
-2.0219e-07
1.61089e-06
3.84689e-07
1.81097e-06
-1.48667e-06
1.79254e-06
-2.01145e-08
-1.40007e-06
-2.24788e-07
1.62486e-06
-2.27662e-06
2.28453e-06
-7.90796e-09
2.10517e-06
-1.2677e-06
-8.3747e-07
3.06638e-07
1.50433e-06
-2.30045e-06
2.28885e-06
1.16051e-08
-7.0073e-10
-1.6988e-08
2.27003e-06
-2.25304e-06
-2.29197e-06
2.29197e-06
-2.72904e-08
1.72282e-06
2.46073e-06
-2.29314e-06
-1.67589e-07
-2.30197e-06
2.28499e-06
2.29972e-06
-2.28812e-06
-1.16046e-08
-1.67538e-06
-3.79101e-08
1.9607e-06
-2.64455e-08
2.28472e-06
-2.25827e-06
2.28539e-06
-2.28973e-06
4.34214e-09
-1.72881e-06
2.27338e-06
-3.35278e-09
-1.75918e-06
1.74366e-06
1.55256e-08
-2.27298e-06
2.28133e-06
-8.35022e-09
1.74125e-06
-1.69586e-06
-2.29588e-06
2.26943e-06
1.76177e-06
-5.61236e-07
8.37716e-07
1.09624e-06
-1.27121e-06
-9.76579e-07
-2.28793e-06
2.28793e-06
-2.29843e-06
-3.54159e-09
2.12764e-06
-3.91046e-07
-1.7366e-06
-1.49668e-06
1.0166e-06
5.7434e-08
2.27709e-06
-2.28423e-06
7.13659e-09
1.67593e-06
-1.67546e-06
-4.73146e-10
2.34804e-06
-2.28691e-06
-6.11294e-08
2.26503e-06
1.2064e-08
2.2609e-06
2.38191e-08
-4.80607e-09
-1.69481e-06
-2.09219e-06
1.15229e-06
9.39903e-07
-1.69239e-06
1.70344e-06
2.27234e-06
-7.31591e-09
2.38267e-07
1.54161e-06
1.22198e-06
-4.66941e-07
-2.29265e-06
-3.23107e-09
1.86939e-06
1.1084e-06
-1.88966e-06
-2.89257e-07
-2.33435e-06
1.70778e-06
-1.71859e-06
1.08111e-08
-7.93417e-08
-2.3133e-06
1.77797e-06
-1.99985e-08
1.97483e-06
-1.35006e-06
-6.24768e-07
-1.71066e-06
2.27587e-06
-2.27587e-06
1.63075e-06
2.33045e-08
-1.65405e-06
1.7543e-06
-2.28069e-06
2.27766e-06
3.03291e-09
2.2643e-06
-2.28637e-06
2.20652e-08
1.43634e-06
-1.90533e-06
-6.19039e-09
-2.2646e-06
2.27079e-06
2.25935e-06
-2.26554e-06
-7.48737e-08
2.40721e-06
-1.80494e-06
1.95793e-06
-2.05057e-06
1.42318e-06
-3.60168e-08
2.33223e-06
1.95723e-07
1.00885e-06
2.23338e-08
2.10531e-06
-6.19198e-09
1.82124e-06
-1.81504e-06
-1.57244e-08
-2.28608e-06
-1.43714e-08
1.8789e-06
-1.89165e-07
-1.68974e-06
-2.27091e-06
2.27091e-06
1.33011e-06
-1.14433e-06
-2.28975e-06
2.28368e-06
6.07398e-09
1.74942e-06
-1.74942e-06
1.70166e-06
-2.57243e-08
2.27403e-06
-2.27769e-06
3.66551e-09
-2.19554e-06
5.99816e-07
1.1847e-09
-1.68951e-06
1.68833e-06
1.83198e-06
-1.53126e-08
2.2786e-06
2.11216e-08
1.38264e-06
2.35573e-07
-1.61821e-06
2.28575e-06
-1.23697e-08
1.77795e-06
-1.77795e-06
2.27126e-06
-2.26326e-06
-8.00482e-09
-1.73819e-06
1.7245e-06
1.36844e-08
2.2885e-06
-2.28161e-06
-6.89236e-09
-2.27476e-06
2.27476e-06
3.40955e-07
1.59404e-06
5.39255e-08
-1.64797e-06
-2.28994e-06
2.28391e-06
6.03052e-09
-8.6726e-09
-1.71583e-06
1.70592e-06
1.86231e-09
2.12768e-06
-3.99379e-07
-1.7283e-06
1.47073e-06
2.26548e-06
-2.27177e-06
6.29565e-09
1.75243e-06
1.86944e-06
2.63292e-08
1.60442e-06
2.32315e-06
-4.4551e-08
2.25788e-06
7.59934e-09
1.66272e-06
-1.66272e-06
-8.75299e-07
2.29752e-06
-2.27937e-06
-6.99318e-09
2.27835e-06
-2.26981e-06
-8.53681e-09
4.50103e-08
-2.32178e-06
2.27677e-06
2.39454e-07
-2.29809e-06
-2.28578e-06
2.28179e-06
3.98924e-09
1.65038e-06
-1.64943e-06
-9.44797e-10
1.73912e-06
-1.53476e-06
1.53476e-06
2.26253e-06
-4.65262e-09
-1.69626e-06
-1.58494e-06
1.59576e-06
1.76129e-06
-1.86737e-08
-5.22396e-09
1.80506e-07
-2.24696e-06
2.27786e-06
-2.27871e-06
8.47432e-10
5.34767e-08
1.5969e-06
5.31421e-08
1.82576e-06
1.71382e-06
-1.21646e-08
-2.28082e-06
2.27807e-06
2.75969e-09
2.26061e-06
-2.26719e-06
6.57456e-09
-2.27854e-06
-1.12125e-08
2.27251e-06
-2.26642e-06
-6.08292e-09
1.71648e-06
3.29427e-08
2.27371e-06
9.96588e-09
-2.96321e-09
2.26879e-06
9.27238e-09
-3.61065e-10
-1.68165e-06
-2.30336e-06
2.44908e-08
-1.70462e-06
1.70462e-06
2.26709e-08
2.10501e-06
-1.73225e-06
3.32181e-07
1.21565e-08
2.27324e-06
9.52373e-08
-1.64233e-06
1.5471e-06
1.61986e-08
2.27577e-06
2.17147e-06
-2.36801e-06
1.71626e-06
6.16866e-08
2.25935e-06
-1.73039e-08
1.61135e-06
-1.65676e-06
7.33037e-09
1.63329e-06
-2.50651e-07
-2.26501e-06
2.26501e-06
-2.27707e-06
-1.28653e-08
1.53693e-06
-1.59223e-06
5.53065e-08
-2.27577e-06
1.6762e-06
-1.67502e-06
2.27257e-06
1.1334e-08
-2.27354e-06
-2.02421e-06
1.41037e-06
-2.2835e-06
2.27965e-06
3.85137e-09
1.55034e-06
1.46908e-07
1.68951e-06
1.01065e-08
-2.25756e-06
2.27325e-06
-1.5687e-08
-1.71773e-06
1.70274e-06
1.49821e-08
-2.26477e-06
7.2102e-09
1.70877e-06
-2.8565e-09
9.32082e-08
-1.76476e-06
1.67155e-06
2.26434e-06
-2.2745e-06
1.01548e-08
1.84222e-06
-1.92841e-06
2.26407e-06
-2.26382e-06
-2.51859e-10
-1.44451e-06
1.44451e-06
-1.78153e-06
1.78153e-06
-2.26143e-06
-3.34187e-09
-1.05706e-06
1.25278e-06
-2.26801e-06
2.26465e-06
3.35478e-09
1.79755e-08
2.26995e-06
1.41419e-06
-1.25278e-06
-1.41419e-06
1.49221e-06
1.49888e-06
-1.72366e-06
2.07569e-06
-1.22808e-06
-8.47605e-07
-2.27605e-06
-9.72563e-09
-3.26838e-07
-1.49221e-06
1.81905e-06
2.27315e-06
8.64374e-09
-1.72309e-06
1.59411e-06
2.27982e-06
-2.27518e-06
-4.64173e-09
-2.26625e-06
-1.70761e-06
1.71758e-06
-5.48539e-08
-6.14152e-09
2.27848e-06
2.2687e-06
-1.68833e-06
-2.32293e-06
-1.36458e-06
1.73999e-06
-3.75408e-07
-2.25633e-06
-8.26875e-09
2.26595e-06
2.83886e-09
1.32123e-06
-1.35078e-06
2.95576e-08
2.637e-09
1.59223e-06
-1.65643e-06
6.4196e-08
1.05103e-06
1.06007e-06
-2.27504e-06
-8.45932e-09
-1.72481e-06
2.25599e-06
-2.25407e-06
-1.9195e-09
2.27226e-06
7.39205e-09
-2.27895e-06
2.27646e-06
2.48566e-09
1.74326e-06
1.71648e-06
-2.26183e-06
2.25678e-06
5.04366e-09
2.27778e-06
-2.27675e-06
-1.03385e-09
-1.69505e-06
1.71626e-06
2.26075e-06
-2.26075e-06
9.13759e-09
2.27971e-06
-1.42719e-06
-3.05065e-07
2.2654e-06
-1.05435e-09
-2.90033e-07
1.54675e-06
-1.25672e-06
2.25965e-06
-2.2577e-06
-1.95139e-09
6.97439e-09
2.2689e-06
2.2555e-06
-2.25756e-06
2.06032e-09
-2.28201e-06
-2.27372e-06
-1.37048e-06
2.01638e-09
2.27564e-06
-2.53273e-09
-2.26802e-06
2.27056e-06
-2.26088e-06
2.2559e-06
4.98105e-09
-2.27496e-06
-3.98764e-09
-1.72193e-06
-1.66413e-06
7.36778e-09
2.27258e-06
3.88397e-09
-2.25882e-06
2.25786e-06
9.58298e-10
-2.26036e-06
8.60283e-09
2.25175e-06
2.27429e-06
5.52737e-09
-2.26721e-06
-7.9689e-09
-1.65498e-06
-7.7469e-09
2.27319e-06
-2.27457e-06
1.37662e-09
2.26008e-06
-2.26261e-06
-2.26437e-06
2.26123e-06
3.13687e-09
2.2587e-06
-2.25687e-06
-1.82805e-09
1.70328e-06
1.34136e-09
2.27391e-06
3.86919e-09
-2.2707e-06
-6.04783e-09
-2.27898e-06
1.71758e-06
-2.25993e-06
2.25539e-06
4.54626e-09
1.50028e-06
-1.59792e-06
-2.25355e-06
2.26206e-06
-8.50427e-09
2.26061e-06
-2.26401e-06
3.40362e-09
-5.6642e-09
-2.27272e-06
-2.23542e-09
-5.96546e-09
-2.00728e-06
1.42426e-06
-3.92542e-09
2.26008e-06
-3.79647e-09
-2.46323e-09
-2.27468e-06
1.95389e-09
8.71902e-07
1.91016e-06
-2.78206e-06
-4.70762e-07
2.27316e-06
3.09865e-11
-2.2689e-06
4.27265e-09
2.26664e-06
-2.27022e-06
-4.35395e-09
-1.70902e-06
-2.27696e-06
2.28016e-09
8.11436e-09
2.26591e-06
-3.33655e-10
1.08764e-08
-2.23851e-06
2.22764e-06
2.27635e-06
-2.27519e-06
-1.15479e-09
-1.73935e-06
3.12164e-07
2.27197e-06
-2.26799e-06
-3.97314e-09
-2.27342e-06
-1.68615e-06
-8.91577e-08
2.25823e-06
-2.25644e-06
-1.79579e-09
1.19611e-08
-2.24064e-06
2.22867e-06
-2.27577e-06
2.2715e-06
4.26946e-09
-1.7211e-06
1.70646e-06
1.46394e-08
1.95004e-09
-2.27572e-06
-1.23824e-09
-1.73221e-06
3.59361e-07
1.37285e-06
-2.27278e-06
-2.98776e-09
2.27556e-06
7.82323e-10
-2.27182e-06
-3.37385e-09
-9.19799e-09
-2.27588e-06
1.6236e-10
-1.6372e-06
-1.88006e-07
1.8252e-06
1.3089e-06
9.62238e-09
-2.26664e-06
1.70738e-06
-4.63631e-09
-2.25815e-06
2.25815e-06
-4.38333e-09
2.27449e-06
1.07811e-09
-1.81287e-09
3.59307e-09
3.69845e-09
2.27534e-06
-8.53486e-10
1.34467e-09
2.27475e-06
-2.27476e-06
1.13495e-11
1.64184e-06
-1.64184e-06
-2.27007e-06
2.26515e-06
4.9266e-09
2.26196e-06
-2.25966e-06
-2.3054e-09
-3.23782e-09
2.27392e-06
1.41602e-09
2.27402e-06
7.29576e-10
-8.39033e-10
2.27413e-06
2.27205e-06
-2.27329e-06
1.23156e-09
-2.29398e-06
-2.26477e-06
-5.30746e-09
1.75132e-06
-2.15236e-08
2.27002e-06
2.03635e-09
1.89296e-08
2.27174e-06
-2.26922e-06
-2.52432e-09
-1.62312e-06
1.62312e-06
1.29087e-08
2.26185e-06
-2.25774e-06
2.26139e-06
-3.65621e-09
2.27126e-06
4.87072e-10
1.39694e-08
1.69985e-06
2.26858e-06
-2.26768e-06
-9.0037e-10
-2.25061e-06
-7.12988e-09
2.26232e-06
-2.26416e-06
1.84463e-09
2.26709e-06
1.48959e-09
2.27125e-06
2.7721e-09
-2.24375e-08
-2.24559e-06
-3.23057e-09
-2.00239e-07
-1.52452e-06
2.25862e-06
-2.26082e-06
2.19713e-09
6.73891e-08
1.57445e-06
2.2683e-06
-2.26613e-06
-2.1689e-09
-2.03743e-09
-3.95885e-08
-1.88395e-06
1.92354e-06
-1.64294e-06
1.66186e-06
-1.89196e-08
-2.24796e-06
2.2487e-06
-7.43416e-10
2.26565e-06
2.65679e-09
-2.25886e-06
-1.41049e-06
2.2824e-06
2.26658e-06
-2.26331e-06
-3.26723e-09
-2.26873e-06
2.26878e-06
-5.15e-11
2.26234e-06
-2.26031e-06
-2.03912e-09
-2.20632e-07
-1.94066e-06
2.16129e-06
2.26421e-06
2.36954e-09
-2.24975e-06
1.79089e-09
2.26692e-06
-2.26402e-06
-2.89454e-09
1.70328e-06
-1.74352e-06
1.74352e-06
2.26606e-06
-2.26174e-06
-4.32425e-09
-4.43362e-09
2.26696e-06
-3.578e-09
-1.70556e-06
2.2628e-06
3.26177e-09
-2.2685e-06
-4.27913e-09
-2.24622e-06
2.24744e-06
-1.22085e-09
2.26876e-06
1.25738e-09
3.87938e-08
2.24574e-06
-4.57726e-10
2.26674e-06
5.76968e-09
1.69877e-06
8.60747e-09
2.76808e-10
-2.24851e-06
2.28641e-09
1.72961e-07
6.38242e-09
7.28636e-08
2.26025e-06
-2.26236e-06
2.10935e-09
-2.24384e-06
2.24648e-06
-2.64318e-09
4.12477e-08
-1.70162e-06
1.66037e-06
3.03993e-07
-1.77121e-06
1.46722e-06
6.44666e-07
1.60701e-06
-1.60701e-06
2.25861e-06
-2.25861e-06
-1.85279e-06
1.03226e-09
-2.26286e-06
1.73347e-06
2.26611e-06
5.14282e-09
-4.26168e-07
-7.94898e-07
1.22107e-06
-2.24717e-06
3.33864e-09
-2.24824e-06
-7.35392e-08
9.60757e-07
-1.58453e-06
6.2377e-07
-1.563e-09
1.54898e-08
2.24657e-06
4.49918e-09
1.70427e-06
-2.26945e-06
4.80021e-09
2.26021e-06
1.44188e-06
-1.75952e-06
3.17642e-07
1.46694e-06
-5.0618e-07
-2.84612e-09
-2.25804e-06
2.26985e-06
-2.25436e-06
-2.26321e-06
-2.24087e-06
2.23873e-06
2.14676e-09
5.38051e-10
2.26412e-06
2.25624e-06
2.36707e-09
2.06171e-06
-1.36917e-06
-6.92532e-07
-6.82824e-09
1.72309e-06
2.26346e-06
3.6257e-09
2.06147e-06
-2.28211e-06
1.54819e-08
2.24648e-06
-2.6823e-09
-2.25725e-06
-2.24356e-06
2.69119e-09
-1.64712e-06
4.18005e-09
1.73163e-06
-1.38864e-06
-3.42988e-07
2.25218e-06
-2.25236e-06
1.72722e-10
-2.67178e-09
6.49977e-07
-9.13564e-07
-8.55102e-07
1.76867e-06
2.25646e-06
-2.25991e-06
3.44877e-09
1.7919e-06
-1.76859e-06
-5.44977e-09
1.72193e-06
-1.47826e-06
1.05209e-06
2.25415e-06
-2.2564e-06
2.24454e-09
2.2672e-06
-2.25172e-06
-1.69906e-06
5.72248e-08
-1.70525e-06
1.70248e-06
2.76452e-09
1.65643e-06
-1.69602e-06
3.63709e-08
2.24495e-06
-1.72263e-06
1.66741e-06
-6.07485e-08
2.26359e-06
-2.26085e-06
-2.7478e-09
1.76177e-06
-1.68355e-06
-7.82167e-08
2.25624e-06
-1.37128e-09
-2.25745e-06
-1.66941e-06
5.27762e-09
2.09632e-07
1.28172e-06
-1.49135e-06
-2.23801e-06
2.23555e-06
2.45135e-09
2.2526e-06
8.00469e-09
-1.426e-06
-2.9766e-07
1.65903e-08
2.24575e-06
2.25973e-06
-2.26508e-06
5.35797e-09
2.25702e-06
-4.14819e-09
-2.24992e-06
-1.75913e-06
-2.97474e-07
2.2609e-06
4.74485e-09
2.40531e-06
-4.9515e-07
-1.39361e-08
2.25881e-06
-2.24487e-06
2.25763e-06
2.09858e-09
-2.24127e-06
3.26236e-09
-2.24746e-06
-1.63549e-08
-4.26767e-09
2.2285e-06
-2.22423e-06
2.95682e-09
2.25779e-06
2.26751e-06
-2.25092e-06
-2.26021e-06
-7.23039e-09
1.72481e-06
-2.41058e-09
1.70952e-06
-8.66275e-08
-1.62289e-06
2.33159e-08
1.6862e-06
-2.23173e-06
2.22746e-06
-2.25983e-06
-4.93891e-09
1.43457e-06
2.97061e-07
-8.29581e-09
1.74782e-06
-1.73953e-06
-1.44753e-06
-1.21091e-06
1.42055e-06
-1.88743e-06
2.35033e-07
1.6524e-06
2.2568e-06
1.74515e-09
-2.25944e-06
2.26872e-08
2.24716e-06
2.25346e-06
-2.25381e-06
3.46828e-10
2.25839e-06
-2.25164e-06
-6.75222e-09
-2.26141e-06
1.56432e-09
-3.28866e-09
-1.70693e-06
1.71021e-06
3.5325e-10
2.26088e-06
-1.56784e-06
4.59524e-07
-2.25854e-06
2.25722e-06
1.31261e-09
-2.23486e-06
2.23216e-06
2.69952e-09
2.20685e-08
1.84266e-06
-1.78874e-06
1.35459e-06
-3.33595e-08
-1.19356e-08
2.26008e-06
-2.24815e-06
-2.01398e-06
1.10041e-06
2.25602e-06
1.99921e-09
-2.25887e-06
2.25832e-06
5.89212e-09
-2.10985e-06
2.033e-08
2.08952e-06
3.60187e-09
-2.23846e-06
2.25393e-06
-2.25157e-06
-2.36587e-09
-7.19672e-08
2.26749e-06
-2.19552e-06
-3.42183e-09
-4.64656e-07
2.12228e-06
-1.65763e-06
-1.69906e-06
-1.87147e-06
2.25535e-06
-1.19383e-09
2.00322e-08
2.24717e-06
2.20015e-06
2.27703e-06
-2.27592e-06
-1.10626e-09
1.00997e-09
-1.71163e-06
1.71062e-06
-2.25669e-06
2.25515e-06
1.54176e-09
4.60219e-08
-1.701e-06
1.65498e-06
2.25965e-06
-2.25876e-06
-8.9079e-10
-1.74968e-06
1.74138e-06
2.25302e-06
-2.25127e-06
-1.75017e-09
6.34657e-09
2.25204e-06
-2.73568e-08
2.26497e-06
-2.25803e-06
2.08451e-08
-1.66445e-06
2.25802e-06
-2.25761e-06
-4.10675e-10
2.25686e-06
1.31424e-09
-2.25775e-06
2.24528e-06
4.721e-09
-2.25e-06
5.46618e-10
2.25829e-06
-2.25194e-06
-5.61294e-09
-1.7103e-06
1.71591e-06
1.21366e-06
-1.78473e-06
5.71075e-07
-3.76146e-07
-1.7337e-06
-1.66088e-06
-3.70867e-07
-1.45553e-06
-2.25554e-06
1.31602e-08
2.24237e-06
-1.72055e-06
1.7103e-06
1.02512e-08
-5.22933e-07
-1.3824e-06
-2.25426e-06
2.01301e-06
-2.24962e-06
2.25363e-06
-4.00351e-09
-1.87896e-06
1.8588e-07
1.69308e-06
1.79824e-06
-1.38108e-06
-4.17168e-07
-2.25761e-06
4.58445e-09
2.25302e-06
1.71332e-06
-1.69153e-06
4.77711e-09
2.24916e-06
-2.25779e-06
2.31898e-09
2.25583e-06
2.2554e-06
7.40172e-09
-3.85974e-10
-2.25718e-06
-7.46047e-09
-2.25108e-06
-2.25191e-06
1.71165e-06
-1.69132e-06
-9.68474e-09
4.82817e-07
1.49201e-06
-1.54034e-06
1.54034e-06
1.97682e-08
2.24774e-06
-2.5592e-06
-2.08266e-06
2.08367e-06
2.25853e-06
1.71003e-06
-1.69697e-06
-2.25516e-06
2.2477e-06
-1.90682e-06
1.95284e-06
2.25352e-06
-2.25154e-06
-1.97682e-09
2.78197e-09
2.25584e-06
-2.28224e-06
1.71711e-06
-1.72272e-06
-2.25444e-06
3.83254e-09
8.50278e-07
2.26e-06
-2.25726e-06
-2.74585e-09
-2.2585e-06
2.25364e-06
-2.25176e-06
-1.8789e-09
-2.25329e-06
-2.24597e-09
2.24838e-06
-2.24148e-06
-1.72338e-06
2.07325e-06
2.25168e-06
-2.25097e-06
-7.15298e-10
-3.99357e-09
2.24928e-06
-1.72055e-06
1.49182e-06
-1.61598e-06
1.24156e-07
-2.77726e-06
2.77726e-06
2.25748e-06
2.2579e-06
-5.73697e-09
3.8398e-09
-2.25707e-06
2.26515e-06
-8.07517e-09
2.25295e-06
-2.25105e-06
-1.89702e-09
-1.86939e-06
1.78024e-06
7.07065e-09
2.25174e-06
-2.25754e-06
6.14739e-09
2.25139e-06
-2.25085e-06
2.2557e-06
-2.25269e-06
-1.7288e-06
-2.25568e-06
7.61064e-09
2.24806e-06
-1.73095e-06
-4.94142e-09
1.6895e-06
-1.70183e-06
1.23375e-08
2.24999e-06
-2.25188e-06
1.89441e-09
4.23779e-08
-2.25565e-06
2.25188e-06
3.77263e-09
2.25459e-06
-1.65342e-06
-1.64214e-06
-2.72631e-08
2.25712e-06
-2.25712e-06
-1.14736e-08
1.71476e-06
-2.25583e-06
2.25253e-06
-2.25063e-06
-1.89557e-09
2.2567e-06
-1.26657e-08
-2.25376e-06
-1.67842e-06
-2.05525e-07
-1.7238e-06
1.3474e-06
-1.50541e-06
1.5801e-07
-3.36476e-07
-1.45671e-06
1.79318e-06
2.24832e-06
-2.24233e-06
1.46177e-06
-1.70162e-06
-4.92914e-09
-2.25268e-06
2.25376e-06
-2.25188e-06
-1.87246e-09
1.73166e-06
-1.74065e-06
-4.7535e-07
-3.15257e-07
7.90607e-07
-1.79561e-06
1.81039e-06
1.73807e-06
-1.71476e-06
-6.77107e-09
-1.6855e-06
1.69227e-06
-8.85465e-09
-1.67232e-06
1.68117e-06
5.69169e-09
-1.75493e-06
1.74924e-06
1.61121e-08
-1.76154e-06
1.74543e-06
8.35241e-09
-1.72511e-06
1.71676e-06
-2.94863e-09
-1.689e-06
1.69195e-06
-2.82732e-09
-1.68774e-06
1.69056e-06
1.0144e-06
-6.83611e-07
-3.30784e-07
1.49761e-06
1.11641e-08
2.24892e-06
1.6491e-06
-1.66012e-06
1.10206e-08
5.29727e-09
-2.25285e-06
2.24755e-06
2.25874e-06
-2.25874e-06
2.22882e-06
-2.78443e-10
-2.22854e-06
-7.66319e-09
-2.24749e-06
2.25236e-06
-2.25039e-06
-1.97149e-09
-1.40003e-06
-1.83801e-06
-4.09507e-08
1.47669e-06
2.85084e-07
2.25698e-06
-2.25382e-06
-3.15542e-09
-1.71796e-06
1.78676e-06
7.54228e-09
2.25075e-06
-1.23913e-06
-7.74852e-07
1.74177e-08
1.6162e-06
-1.63361e-06
-1.15435e-06
-1.96437e-07
-3.87278e-07
-2.38726e-07
6.26004e-07
1.69606e-06
1.69632e-06
1.77012e-06
1.77041e-06
1.75812e-06
1.73441e-06
-8.00283e-09
-1.6997e-06
1.7077e-06
1.70128e-06
-2.50389e-09
-6.68285e-07
2.2531e-06
-2.2478e-06
-5.608e-08
1.81293e-06
-2.25964e-06
-1.54208e-06
1.90925e-06
2.22618e-06
1.46115e-09
-2.22764e-06
2.26173e-06
-4.60674e-09
-2.25684e-06
8.18591e-09
2.24865e-06
-1.70155e-06
-1.70693e-06
1.70648e-06
-1.71449e-06
-1.55288e-06
1.87411e-06
-3.21232e-07
-4.06017e-09
-2.25162e-06
1.17744e-06
-1.46747e-06
3.71581e-09
-2.25528e-06
-2.25259e-06
-5.98969e-07
-8.79287e-07
-2.24857e-06
-4.2737e-09
1.72669e-06
5.39045e-07
1.31626e-06
2.25016e-06
-2.24842e-06
-1.74069e-09
1.71414e-06
-1.13421e-06
-5.79934e-07
-8.16956e-07
4.29678e-07
-9.47535e-07
2.04795e-06
-8.20796e-07
1.70568e-06
-8.8488e-07
8.29605e-10
2.25563e-06
-2.24014e-06
2.25173e-06
-2.25304e-06
1.31177e-09
-1.27505e-06
5.43124e-07
7.31924e-07
-7.4565e-09
-1.69926e-06
1.70672e-06
2.35803e-06
-1.04229e-06
-1.31574e-06
1.58451e-09
2.22723e-06
-4.90501e-07
-7.84546e-07
-1.64575e-06
1.66317e-06
1.40496e-06
9.26492e-08
-1.63814e-06
-3.39427e-09
-1.7012e-06
1.7046e-06
1.75623e-06
-1.70275e-06
-1.04508e-06
-3.97321e-07
1.4424e-06
-2.24834e-06
2.249e-06
-6.54402e-10
-1.66121e-06
1.68206e-06
2.25073e-06
-2.2522e-06
-1.50475e-06
-3.55969e-08
-2.26762e-06
2.25908e-06
-1.17411e-06
1.69014e-09
2.25194e-06
1.96334e-06
-1.08502e-06
-8.78322e-07
1.66046e-06
-3.13057e-07
1.85777e-06
-2.41575e-07
1.70404e-06
-1.7115e-06
2.24776e-06
-2.2478e-06
4.00339e-11
1.70524e-06
-1.70863e-06
2.06641e-09
-2.24654e-06
2.24447e-06
-9.4727e-07
-2.26843e-07
6.0294e-09