/*--------------------------------*- C++ -*----------------------------------*\
  =========                 |
  \\      /  F ield         | OpenFOAM: The Open Source CFD Toolbox
   \\    /   O peration     | Website:  https://openfoam.org
    \\  /    A nd           | Version:  12
     \\/     M anipulation  |
\*---------------------------------------------------------------------------*/
FoamFile
{
    format      ascii;
    class       surfaceScalarField;
    location    "0.21";
    object      phi;
}
// * * * * * * * * * * * * * * * * * * * * * * * * * * * * * * * * * * * * * //

dimensions      [0 3 -1 0 0 0 0];

internalField   nonuniform List<scalar> 
6438
(
-3.41467e-08
4.2607e-06
-4.22656e-06
-3.7013e-08
4.94975e-06
-4.91274e-06
-4.64363e-06
-7.89579e-07
5.43321e-06
4.40535e-06
-4.836e-06
4.3065e-07
6.76764e-06
-5.28754e-06
-1.48009e-06
1.53144e-06
5.23619e-06
-5.27975e-06
6.36119e-07
-4.57472e-06
4.53771e-06
4.94492e-06
-5.90193e-06
9.57009e-07
4.59379e-06
-5.38839e-06
7.94609e-07
-4.44195e-06
5.4057e-06
-9.63743e-07
1.06569e-06
-4.86732e-06
3.80163e-06
-5.50441e-06
1.06246e-06
4.22155e-06
1.9387e-06
-6.16025e-06
3.9671e-06
-4.00125e-06
-2.24373e-07
4.6495e-06
-4.42513e-06
-5.85777e-06
5.68143e-06
1.76341e-07
-4.43505e-06
5.38789e-06
-9.52838e-07
-5.50271e-06
1.06766e-06
1.7466e-06
3.6895e-06
-5.4361e-06
-1.27179e-06
-8.30921e-07
2.10271e-06
-2.70421e-07
4.86903e-06
-4.59861e-06
-4.51746e-06
-7.31518e-07
5.24897e-06
-5.53199e-06
2.42536e-06
3.10663e-06
-4.79664e-06
4.52622e-06
-4.25981e-06
5.17804e-06
-9.18231e-07
-5.21311e-06
6.95654e-07
4.9365e-06
-3.87081e-06
-4.4844e-06
-8.42061e-07
5.32646e-06
-5.42724e-06
1.16743e-06
4.15177e-06
-5.22285e-06
1.07108e-06
2.29897e-08
-5.08397e-06
5.06098e-06
4.9758e-06
-5.00632e-06
3.05202e-08
-4.93003e-06
8.27886e-07
4.10214e-06
-6.65623e-06
1.07782e-06
5.57841e-06
4.68131e-06
-4.65832e-06
4.72418e-06
-3.18832e-07
3.0647e-06
4.2933e-06
-7.358e-06
-1.52066e-06
5.74221e-06
-4.39641e-06
4.83079e-06
-4.34386e-07
-5.09417e-06
5.04803e-06
4.6135e-08
-2.1146e-06
3.8612e-06
4.55422e-06
3.95689e-08
-5.47521e-06
5.36346e-06
1.11747e-07
4.90167e-06
-7.49909e-07
-3.69038e-06
3.46601e-06
-6.36529e-06
1.07775e-06
4.84052e-06
4.65375e-07
-5.3059e-06
-3.75637e-06
-1.17365e-06
-6.91466e-07
-4.52718e-06
5.13683e-06
-6.09654e-07
-3.36623e-06
4.86168e-06
-1.49545e-06
4.88388e-06
-4.88388e-06
1.53545e-06
3.70372e-06
4.86996e-07
-4.19072e-06
2.17389e-06
1.05806e-06
-3.23196e-06
4.1351e-06
8.72552e-07
-5.00765e-06
3.99377e-06
-1.56841e-06
-2.31553e-06
-4.04976e-06
-4.8271e-08
4.30597e-06
-4.2577e-06
-5.31024e-06
5.31024e-06
-5.50194e-06
5.55914e-06
-5.71986e-08
2.22541e-07
4.08901e-06
-4.31155e-06
1.51422e-08
-5.01057e-06
4.99543e-06
4.65008e-06
-4.63494e-06
-5.07056e-06
5.86167e-07
-5.08348e-06
-3.91729e-07
-4.37292e-06
4.80708e-06
-4.34156e-07
4.8355e-07
4.18655e-06
-4.6701e-06
-5.14195e-06
4.94489e-06
1.97052e-07
5.01204e-06
-5.01204e-06
4.65693e-06
2.87991e-07
-3.06017e-06
-2.32823e-06
4.36562e-06
9.20131e-07
-5.28576e-06
-4.28194e-06
-8.12223e-07
3.80413e-06
2.9387e-06
-6.74283e-06
-5.89055e-06
3.77595e-06
-3.75814e-06
-2.13241e-06
5.19192e-06
-8.26291e-07
3.09259e-06
-9.18696e-07
4.20202e-06
4.81344e-07
-4.68336e-06
-5.18166e-06
-3.20282e-07
-7.32225e-07
-1.26212e-06
-4.04813e-06
5.61762e-06
-5.61762e-06
-3.71267e-06
-1.42927e-06
-3.36358e-07
-6.31987e-06
-4.84704e-06
4.82746e-06
1.95839e-08
1.74515e-07
-4.9086e-06
4.73408e-06
-5.39571e-07
4.74159e-06
4.8517e-06
1.24094e-07
-5.06808e-06
-7.89692e-07
-5.11825e-06
5.24923e-06
-1.30975e-07
5.33994e-06
-2.98883e-06
-2.35111e-06
4.7922e-06
-4.61769e-06
9.78534e-08
5.37311e-06
-2.73446e-06
-2.63865e-06
3.05731e-06
2.28263e-06
4.93238e-06
-4.93238e-06
-3.783e-06
5.42758e-06
-1.64457e-06
-4.75474e-06
2.27562e-07
-6.50081e-07
-3.85135e-06
4.50143e-06
-4.4561e-06
1.7416e-07
-4.77551e-06
9.9251e-07
4.12075e-06
9.09591e-07
-5.03034e-06
-2.86128e-07
4.40687e-06
-4.30341e-06
4.97218e-06
-6.68776e-07
-4.57279e-06
1.76383e-07
3.15133e-06
2.22178e-06
4.76177e-06
-9.60138e-07
2.04592e-07
4.67929e-06
-4.11026e-06
-3.45845e-07
4.29772e-06
9.14383e-07
-5.2121e-06
-2.37568e-06
-2.04999e-06
4.42568e-06
3.12832e-06
-3.93879e-07
-2.73444e-06
-5.08397e-06
1.03119e-06
5.09801e-06
-6.1292e-06
-2.36283e-06
1.09104e-06
5.0854e-06
9.2647e-08
5.51146e-06
-2.85222e-06
-2.65924e-06
1.84505e-06
3.66641e-06
5.14786e-06
-8.50138e-07
6.27886e-06
-3.21417e-06
-4.65257e-06
1.26781e-08
4.63989e-06
-6.65351e-06
6.80118e-07
5.97339e-06
-7.61031e-08
-4.61867e-06
4.69477e-06
5.08076e-06
2.82701e-07
-3.91847e-06
3.8702e-06
-4.67547e-06
4.76953e-06
-9.40628e-08
4.73421e-06
-4.81032e-06
4.88496e-06
-4.88496e-06
4.81153e-06
1.38221e-07
4.8207e-06
-1.11698e-06
4.75563e-06
-4.53309e-06
-4.18908e-06
3.539e-06
4.29671e-08
4.61621e-06
-4.65918e-06
5.42758e-06
-3.8039e-06
-1.62368e-06
-5.01057e-06
-7.19217e-08
5.61793e-08
-4.6309e-06
-4.6416e-06
2.6868e-07
5.34723e-08
4.62784e-06
4.47858e-06
-3.99502e-06
-4.61878e-06
3.15372e-07
4.68625e-06
-1.32032e-07
-1.67153e-07
4.07793e-06
-3.91078e-06
3.20773e-06
2.21986e-06
-4.80309e-06
1.03084e-06
3.77225e-06
4.89546e-06
-3.37821e-08
-6.47448e-06
5.89536e-07
5.88495e-06
-6.53434e-08
-4.59431e-06
4.65965e-06
3.05396e-06
7.43623e-08
2.91818e-07
4.60364e-06
4.55651e-06
3.79988e-07
4.70652e-06
-4.77186e-06
-4.9047e-06
-1.63378e-07
5.00258e-06
-5.37438e-06
3.71806e-07
-4.4733e-06
-1.79267e-07
-5.44392e-06
2.36018e-06
3.08374e-06
1.92167e-09
4.70669e-06
1.6234e-07
-4.42949e-06
5.15095e-06
-7.21461e-07
-4.88386e-06
4.20608e-06
6.77784e-07
-6.60219e-07
1.70636e-06
-1.04614e-06
-1.53062e-06
-3.89663e-06
-4.9086e-06
-3.87106e-08
4.6888e-06
1.43672e-06
3.99085e-06
-7.81905e-08
-4.77407e-06
-2.25723e-08
-1.00901e-07
-5.21948e-06
4.41079e-06
8.08694e-07
-3.0672e-07
3.88975e-06
7.67172e-07
7.63034e-06
-3.33704e-06
-1.61475e-06
-3.88797e-06
4.7862e-06
6.55049e-08
-4.10976e-06
1.73408e-06
-1.84423e-06
-2.91269e-06
4.75692e-06
-1.64712e-06
-3.85729e-06
-2.68014e-06
6.48426e-06
-4.93537e-06
1.61298e-07
-4.6596e-06
4.67745e-06
-1.7847e-08
-3.85048e-06
3.68333e-06
-5.59694e-08
-4.56686e-06
4.62283e-06
-5.02092e-06
8.55512e-08
4.18765e-06
-4.98281e-06
7.95154e-07
4.66553e-06
-4.7215e-06
4.16951e-06
-1.57871e-06
-2.5908e-06
-6.30597e-06
2.23271e-06
4.07326e-06
4.2755e-06
4.10746e-07
3.53154e-06
2.14989e-06
1.03201e-06
4.58561e-06
-1.22438e-06
-4.39324e-06
-5.08113e-06
5.03603e-06
4.51009e-08
-5.06735e-06
-1.37818e-08
-5.04145e-06
-2.58983e-08
1.51126e-08
1.3116e-06
-7.34101e-06
6.02941e-06
-5.45215e-06
6.48334e-06
4.30522e-06
-4.26226e-06
4.60017e-06
1.92035e-07
3.75151e-07
3.79436e-06
-4.61867e-06
-4.18747e-06
4.16775e-06
5.19597e-07
-4.68735e-06
-2.36373e-08
-9.93982e-07
7.329e-06
-6.33502e-06
6.95235e-06
-5.01365e-06
-2.109e-06
3.16706e-06
-1.33712e-06
-4.10681e-06
-3.64872e-06
-2.65725e-06
-4.61749e-06
-2.8721e-07
-4.64975e-06
4.64906e-06
6.90848e-10
-7.34607e-07
4.36539e-06
-3.63079e-06
-4.99181e-06
5.02699e-06
-3.51794e-08
-4.93965e-06
-5.21582e-08
-6.34854e-06
3.95546e-07
5.95299e-06
-4.43701e-06
-2.87829e-07
4.72484e-06
4.97351e-06
5.3479e-08
-8.84011e-07
-5.43485e-06
1.98029e-06
3.45456e-06
3.12148e-08
-2.87744e-06
-2.55741e-06
-6.79458e-08
-5.06869e-08
-4.54086e-06
4.59154e-06
-4.66977e-06
2.32762e-07
4.22029e-06
5.65906e-07
4.86389e-06
-4.65929e-06
4.62148e-06
-4.67217e-06
4.60179e-06
1.32427e-07
2.26207e-06
4.69028e-06
4.80243e-06
-9.12672e-07
-3.77247e-07
-6.27626e-06
-2.74804e-07
3.79316e-06
-3.51836e-06
-4.91606e-06
-2.3584e-08
-4.91535e-06
-7.14893e-10
4.95477e-06
-4.91939e-06
-3.5384e-08
4.9009e-06
5.3876e-08
-4.59431e-06
1.13486e-06
-1.55855e-06
4.23684e-07
-5.55079e-06
3.24809e-06
2.3027e-06
2.48544e-06
-4.98313e-06
2.4977e-06
-4.35007e-06
-4.04671e-07
-4.63422e-06
4.61126e-06
2.29576e-08
-4.82122e-06
4.64999e-06
1.71232e-07
-3.85027e-07
4.93387e-06
-4.54884e-06
-4.78673e-06
1.16958e-07
-5.31481e-06
6.62641e-06
-4.93189e-07
-4.3099e-06
-4.99681e-06
4.61178e-06
-3.91509e-06
-3.60283e-07
4.27538e-06
-3.66922e-06
4.86933e-06
3.15618e-08
-3.33497e-06
-8.92565e-07
9.89613e-07
-9.70476e-08
-4.6016e-08
1.78969e-07
-6.34081e-06
6.16184e-06
-3.55441e-06
-1.72533e-06
-4.93849e-06
4.83758e-06
1.00909e-07
-4.86274e-06
-7.57478e-08
-1.74858e-06
1.08836e-06
4.5934e-06
1.13119e-07
4.90514e-06
-8.16136e-07
4.85814e-06
-4.85255e-06
-5.58627e-09
-1.30992e-08
-4.50592e-06
4.51902e-06
5.08549e-06
-3.64876e-06
-6.12488e-08
5.04322e-06
2.84691e-06
-7.89013e-06
4.99719e-06
-4.99719e-06
7.73066e-07
4.53718e-06
-1.7635e-06
-3.12038e-06
-3.98339e-06
4.80131e-06
-8.17924e-07
-5.30964e-07
-4.29026e-06
4.59819e-06
-4.61129e-06
-4.40348e-06
7.46811e-08
4.3288e-06
8.45037e-07
-4.46306e-06
3.61803e-06
-4.62094e-06
4.57315e-06
4.77947e-08
2.95183e-06
2.13366e-06
-1.44556e-07
-7.48009e-07
-2.77611e-06
-2.77467e-06
-1.06224e-06
-4.93362e-06
5.04131e-07
-4.56686e-06
4.13841e-06
8.64166e-07
-3.84294e-06
-4.31643e-06
4.01331e-07
-4.40413e-06
2.5599e-06
4.99696e-06
-4.0624e-06
-9.34556e-07
8.53595e-07
4.01029e-06
-3.53711e-06
-1.676e-06
-4.88816e-06
4.88816e-06
4.89015e-06
-4.70256e-06
-1.87589e-07
2.81811e-07
-4.63188e-06
-3.9126e-06
4.42356e-06
-5.10952e-07
-1.55003e-06
7.19109e-07
4.55553e-06
-4.57774e-06
2.2217e-08
4.78592e-06
5.16606e-08
4.83531e-06
5.48337e-08
7.30529e-06
-4.66141e-06
-1.25317e-07
-4.09024e-06
3.35564e-06
4.58704e-06
7.84879e-08
4.82092e-06
-4.79376e-06
-2.71685e-08
-4.18181e-08
-6.66316e-08
5.0344e-07
-4.13405e-06
3.63061e-06
-1.44894e-07
-6.32959e-06
1.51388e-06
3.40302e-07
-4.25291e-06
-4.61093e-06
4.54062e-06
7.03113e-08
4.60061e-06
-4.12952e-07
-2.14842e-06
-2.8579e-06
-6.44613e-06
4.77737e-07
-2.58674e-06
-7.65875e-07
2.00768e-08
4.73883e-06
-4.21924e-06
-4.54086e-06
-4.54804e-06
1.18492e-07
4.42955e-06
6.42045e-06
9.08552e-07
3.70127e-06
1.85787e-06
4.47805e-06
-1.99261e-06
4.67631e-06
-2.65524e-07
1.07289e-05
-7.88198e-06
-7.34101e-06
-2.35256e-06
-2.5313e-06
-5.94316e-08
4.98603e-06
-4.67148e-06
-3.14551e-07
4.72672e-06
1.08592e-07
5.4655e-07
-4.52994e-06
-3.36158e-06
3.86502e-06
4.58163e-06
3.98544e-08
3.59809e-06
1.59382e-06
4.80697e-06
1.79065e-07
4.80295e-06
-4.73409e-06
-6.88586e-08
-2.16342e-06
-3.05943e-06
-2.16608e-07
4.42268e-06
8.22807e-08
-5.09433e-06
3.98238e-06
-3.13735e-06
-6.70326e-08
1.00391e-07
3.88608e-06
-4.21848e-06
3.32402e-07
7.1012e-07
4.09119e-06
6.51673e-06
-6.33776e-06
2.26738e-06
2.86945e-06
-4.59876e-06
4.54499e-06
5.3763e-08
-1.05881e-07
-2.6739e-06
1.46507e-06
1.20883e-06
-4.79604e-08
4.99647e-06
-4.99647e-06
5.64757e-06
-3.27486e-06
-2.37271e-06
-4.13958e-06
-6.96415e-07
3.49236e-06
1.6555e-06
4.77998e-06
2.69869e-08
-4.50592e-06
4.47063e-06
2.84666e-08
-4.4991e-06
3.65985e-06
5.09433e-06
-5.06098e-06
1.28597e-07
5.94782e-06
-5.26771e-06
4.60546e-06
-4.90454e-06
4.57397e-06
-1.03343e-07
4.12918e-06
-4.46817e-06
4.44467e-06
2.34914e-08
2.08736e-07
3.58581e-06
-3.79455e-06
-4.06539e-06
3.3585e-06
-3.04539e-07
4.25176e-06
5.79033e-07
-4.08185e-08
-3.93246e-06
-6.86319e-07
-5.88935e-06
3.72593e-06
6.71499e-09
-4.48002e-06
-4.77045e-06
-2.26359e-07
6.38905e-06
-3.45035e-06
4.58897e-08
-8.26281e-07
5.08063e-06
-4.25435e-06
-2.17088e-06
-5.03014e-07
4.4505e-06
-4.49832e-06
4.78217e-08
-4.60546e-06
4.56788e-06
1.98116e-06
2.82969e-06
-4.81085e-06
4.78768e-06
-9.01594e-07
3.97493e-07
4.25201e-06
4.69483e-06
4.56122e-07
5.12398e-07
6.22464e-07
-4.99543e-06
1.10469e-07
-3.96518e-06
4.51173e-06
-2.29688e-06
2.77462e-06
4.23511e-07
-4.16609e-06
3.74257e-06
-3.39028e-08
8.74869e-08
-4.15525e-06
-4.7272e-06
4.64048e-06
8.67167e-08
-4.53443e-06
4.7203e-07
2.96016e-06
2.68741e-06
-2.5522e-06
5.23212e-06
-2.67992e-06
5.24392e-06
-4.89541e-06
-3.4851e-07
1.31028e-07
3.22747e-06
-4.49994e-06
-4.80998e-08
4.56736e-06
6.61587e-09
2.25807e-06
-7.93007e-07
5.81375e-06
-5.22421e-06
4.16719e-06
6.39886e-07
2.62383e-07
-4.63715e-06
7.0469e-07
7.05245e-08
-4.0357e-06
5.17796e-06
-4.18545e-06
4.22175e-06
-2.56923e-07
-4.01909e-06
4.27601e-06
-4.54529e-06
4.73343e-06
-5.59838e-08
-6.88591e-06
5.50891e-07
-2.93075e-08
4.45891e-06
8.60869e-08
-4.20974e-06
-4.62045e-06
4.60129e-06
1.91608e-08
5.53188e-06
-3.21352e-06
-2.31836e-06
-3.87735e-06
-3.48599e-07
4.22595e-06
-1.03878e-08
-4.56882e-06
9.82449e-08
-4.9427e-07
4.8804e-06
-4.38613e-06
-4.474e-06
4.49621e-06
-6.49343e-06
-9.47647e-07
-6.28085e-06
6.12342e-06
1.57436e-07
3.58466e-06
1.82104e-06
4.1953e-06
3.76511e-07
-4.57181e-06
4.45867e-06
-1.8317e-07
3.59462e-06
1.79327e-06
-3.18389e-06
1.01301e-06
-4.50688e-06
3.91493e-06
-4.4545e-06
-6.05061e-06
6.02866e-06
2.19425e-08
5.46472e-06
-4.38691e-06
4.45822e-06
-1.35431e-08
2.74157e-07
-4.15774e-06
3.88358e-06
-6.72178e-08
-5.98339e-06
5.40262e-06
-5.40262e-06
-2.45922e-06
4.63538e-06
-2.17617e-06
-4.46156e-06
4.46156e-06
4.56307e-06
-4.03396e-06
-5.29116e-07
4.24166e-06
1.00757e-06
4.75421e-06
-3.90061e-06
4.70156e-06
-5.25006e-08
-3.6801e-06
-5.89421e-07
4.26952e-06
-5.97692e-06
5.99724e-06
-2.03187e-08
5.516e-06
-3.32073e-06
-2.19527e-06
8.05792e-07
3.94842e-06
-6.03948e-06
6.00923e-06
3.02502e-08
-1.2806e-09
-4.40244e-08
5.95986e-06
-5.91584e-06
-6.01658e-06
6.01658e-06
-7.15754e-08
4.52208e-06
6.45674e-06
-6.01882e-06
-4.37914e-07
-6.04326e-06
5.99924e-06
6.03798e-06
-6.00723e-06
-3.07422e-08
-4.39914e-06
-9.91894e-08
5.14631e-06
-6.87232e-08
5.99794e-06
-5.92921e-06
5.9998e-06
-6.0111e-06
1.13016e-08
-4.53516e-06
5.96857e-06
-8.71063e-09
-4.61516e-06
4.57398e-06
4.11803e-08
-5.96745e-06
5.98898e-06
-2.15376e-08
4.57067e-06
-4.45218e-06
-6.02728e-06
5.95856e-06
4.62264e-06
-1.46969e-06
2.20187e-06
2.87876e-06
-3.34183e-06
-2.54752e-06
-6.00638e-06
6.00638e-06
-6.03389e-06
-9.36716e-09
5.58564e-06
-1.02387e-06
-4.56177e-06
-3.93681e-06
2.67469e-06
1.50446e-07
5.97819e-06
-5.99672e-06
1.85213e-08
4.39999e-06
-4.39623e-06
-3.75891e-09
6.16445e-06
-6.00432e-06
-1.60125e-07
5.94708e-06
3.1116e-08
5.93613e-06
6.1805e-08
-1.22381e-08
-4.44932e-06
-5.50616e-06
3.0297e-06
2.47646e-06
-4.44308e-06
4.47155e-06
5.96595e-06
-1.88681e-08
6.26212e-07
4.0501e-06
3.20882e-06
-1.22765e-06
-6.01862e-06
-8.66735e-09
4.90835e-06
2.9127e-06
-4.96269e-06
-7.56207e-07
-6.1297e-06
4.47842e-06
-4.50465e-06
2.62239e-08
-2.07639e-07
-6.07322e-06
4.66323e-06
-5.19688e-08
5.18449e-06
-3.54674e-06
-1.63775e-06
-4.48802e-06
5.97505e-06
-5.97505e-06
4.27602e-06
5.59663e-08
-4.33199e-06
4.60198e-06
-5.98761e-06
5.97975e-06
7.85998e-09
5.94522e-06
-6.00255e-06
5.73208e-08
3.78358e-06
-5.00796e-06
-1.59706e-08
-5.94547e-06
5.96144e-06
5.93175e-06
-5.94772e-06
-1.98335e-07
6.32175e-06
-4.74858e-06
5.14412e-06
-5.37556e-06
3.72844e-06
-9.45014e-08
6.12316e-06
5.14856e-07
2.65221e-06
5.09044e-08
5.53474e-06
-1.64167e-08
4.79026e-06
-4.77384e-06
-4.07867e-08
-6.00193e-06
-3.75477e-08
4.92713e-06
-4.93361e-07
-4.43377e-06
-5.96203e-06
5.96203e-06
3.5004e-06
-3.0134e-06
-6.01142e-06
5.99566e-06
1.57592e-08
4.59105e-06
-4.59105e-06
4.46932e-06
-6.9328e-08
5.97019e-06
-5.97978e-06
9.59024e-09
-5.76387e-06
1.5764e-06
5.74549e-09
-4.43464e-06
4.42889e-06
4.80973e-06
-4.01919e-08
5.98269e-06
5.52918e-08
3.62937e-06
6.19403e-07
-4.24877e-06
6.001e-06
-3.24318e-08
4.66223e-06
-4.66223e-06
5.96287e-06
-5.94212e-06
-2.07448e-08
-4.55984e-06
4.5259e-06
3.39381e-08
6.00843e-06
-5.99022e-06
-1.82075e-08
-5.97193e-06
5.97193e-06
8.90234e-07
4.18167e-06
1.41253e-07
-4.32293e-06
-6.01191e-06
5.99626e-06
1.56523e-08
-2.22215e-08
-4.50204e-06
4.47595e-06
2.47101e-09
5.58768e-06
-1.05561e-06
-4.53208e-06
3.86052e-06
5.94773e-06
-5.96415e-06
1.64204e-08
4.59694e-06
4.90974e-06
6.92127e-08
4.20681e-06
6.09887e-06
-1.1618e-07
5.92816e-06
1.95655e-08
4.36265e-06
-4.36265e-06
-2.29688e-06
6.03165e-06
-5.98423e-06
-1.83149e-08
5.98118e-06
-5.95866e-06
-2.25171e-08
1.17047e-07
-6.09469e-06
5.97764e-06
6.26794e-07
-6.02941e-06
-6.00104e-06
5.99069e-06
1.03502e-08
4.33259e-06
-4.33005e-06
-2.53804e-09
4.56307e-06
-4.0269e-06
4.0269e-06
5.94021e-06
-1.20441e-08
-4.45374e-06
-4.15774e-06
4.1953e-06
4.62122e-06
-4.80743e-08
-1.35277e-08
4.73465e-07
-5.89953e-06
5.98016e-06
-5.98208e-06
1.92637e-09
1.42935e-07
4.18965e-06
1.38027e-07
4.78911e-06
4.504e-06
-3.46767e-08
-5.98768e-06
5.98071e-06
6.97087e-09
5.93489e-06
-5.95151e-06
1.66201e-08
-5.98227e-06
-2.91557e-08
5.96606e-06
-5.95036e-06
-1.56991e-08
4.50488e-06
8.61616e-08
5.96972e-06
2.5943e-08
-7.52532e-09
5.95638e-06
2.43278e-08
-9.04604e-10
-4.41265e-06
-6.04715e-06
6.37597e-08
-4.47538e-06
4.47538e-06
5.56768e-08
5.53201e-06
-4.54793e-06
8.6783e-07
3.13603e-08
5.96844e-06
2.48765e-07
-4.30186e-06
4.0531e-06
4.15581e-08
5.97502e-06
5.70053e-06
-6.21716e-06
4.50092e-06
1.61306e-07
5.93175e-06
-4.58806e-08
4.22755e-06
-4.35158e-06
2.15274e-08
4.28792e-06
-6.58554e-07
-5.94657e-06
5.94657e-06
-5.97841e-06
-3.35e-08
4.03396e-06
-4.17995e-06
1.45991e-07
-5.97502e-06
4.40356e-06
-4.39782e-06
5.96679e-06
2.9465e-08
-5.96955e-06
-5.3099e-06
3.69515e-06
-5.99508e-06
5.98509e-06
9.98586e-09
4.07533e-06
3.83342e-07
4.43464e-06
2.69202e-08
-5.9273e-06
5.96799e-06
-4.06842e-08
-4.50313e-06
4.46319e-06
3.99482e-08
-5.94627e-06
1.89719e-08
4.48493e-06
-8.97767e-09
2.48028e-07
-4.63632e-06
4.38829e-06
5.94491e-06
-5.97125e-06
2.63415e-08
4.83585e-06
-5.06221e-06
5.94425e-06
-5.9436e-06
-6.51291e-10
-3.79827e-06
3.79827e-06
-4.67692e-06
4.67692e-06
-5.93741e-06
-8.86539e-09
-2.77462e-06
3.28948e-06
-5.95442e-06
5.94565e-06
8.76336e-09
4.64922e-08
5.95989e-06
3.71299e-06
-3.28948e-06
-3.71299e-06
3.92172e-06
3.94165e-06
-4.53108e-06
5.43797e-06
-3.222e-06
-2.21598e-06
-5.97572e-06
-2.53207e-08
-8.60992e-07
-3.92172e-06
4.78272e-06
5.96823e-06
2.24637e-08
-4.52183e-06
4.19042e-06
5.98538e-06
-5.97328e-06
-1.20996e-08
-5.95022e-06
-4.48135e-06
4.50211e-06
-1.39464e-07
-1.59519e-08
5.9819e-06
5.95681e-06
-4.42889e-06
-6.09882e-06
-3.57901e-06
4.57181e-06
-9.92802e-07
-5.92403e-06
-2.1445e-08
5.94912e-06
7.26319e-09
3.4694e-06
-3.54441e-06
7.50161e-08
6.83828e-09
4.17995e-06
-4.34811e-06
1.68166e-07
2.7442e-06
2.78768e-06
-5.97303e-06
-2.20494e-08
-4.5242e-06
5.92296e-06
-5.91801e-06
-4.95274e-09
5.96588e-06
1.92148e-08
-5.98316e-06
5.97673e-06
6.43322e-09
4.57369e-06
4.50488e-06
-5.93816e-06
5.92515e-06
1.30094e-08
5.98007e-06
-5.97743e-06
-2.63819e-09
-4.44746e-06
4.50092e-06
5.93536e-06
-5.93536e-06
2.3648e-08
5.98558e-06
-3.74769e-06
-8.00241e-07
5.94779e-06
-2.88108e-09
-7.64219e-07
4.06261e-06
-3.2984e-06
5.93255e-06
-5.92741e-06
-5.1348e-09
1.81683e-08
5.95688e-06
5.92176e-06
-5.92704e-06
5.27668e-09
-5.991e-06
-5.96945e-06
-3.59545e-06
5.15006e-09
5.9746e-06
-6.28675e-09
-5.95339e-06
5.95968e-06
-5.93575e-06
5.92278e-06
1.29617e-08
-5.97278e-06
-1.03802e-08
-4.52126e-06
-4.36656e-06
1.49882e-08
5.96668e-06
1.00485e-08
-5.93036e-06
5.92786e-06
2.50568e-09
-5.93443e-06
2.23264e-08
5.91211e-06
5.97101e-06
1.43679e-08
-5.95253e-06
-2.07504e-08
-4.3421e-06
-2.05514e-08
5.96808e-06
-5.97175e-06
3.6702e-09
5.93274e-06
-5.93903e-06
-5.94489e-06
5.93668e-06
8.2029e-09
5.93007e-06
-5.92527e-06
-4.8039e-09
4.47148e-06
3.8993e-09
5.97005e-06
1.002e-08
-5.96171e-06
-1.57189e-08
-5.98359e-06
4.50211e-06
-5.93326e-06
5.92142e-06
1.18356e-08
3.93817e-06
-4.1951e-06
-5.91652e-06
5.93872e-06
-2.21981e-08
5.93487e-06
-5.94373e-06
8.86147e-09
-1.45099e-08
-5.96704e-06
-5.74397e-09
-1.54756e-08
-5.26773e-06
3.73711e-06
-1.01833e-08
5.93274e-06
-9.84244e-09
-6.3454e-09
-5.97206e-06
5.02432e-09
2.28414e-06
5.01697e-06
-7.30111e-06
-1.23618e-06
5.96811e-06
-2.9856e-11
-5.95688e-06
1.10103e-08
5.95102e-06
-5.96047e-06
-1.12835e-08
-4.48623e-06
-5.978e-06
5.93976e-09
2.0903e-08
5.94928e-06
-9.27657e-10
2.82719e-08
-5.87688e-06
5.84861e-06
5.97635e-06
-5.9733e-06
-3.04327e-09
-4.56641e-06
8.1872e-07
5.96484e-06
-5.95439e-06
-1.04444e-08
-5.96877e-06
-4.42582e-06
-2.3336e-07
5.92882e-06
-5.92413e-06
-4.68625e-09
3.11618e-08
-5.88247e-06
5.85131e-06
-5.97485e-06
5.96372e-06
1.11318e-08
-4.51756e-06
4.48018e-06
3.73853e-08
5.23691e-09
-5.97479e-06
-3.2134e-09
-4.54323e-06
9.42578e-07
3.60065e-06
-5.967e-06
-7.8524e-09
5.97437e-06
1.97164e-09
-5.96459e-06
-8.7091e-09
-2.37715e-08
-5.97519e-06
3.95105e-10
-4.29678e-06
-5.00523e-07
4.7973e-06
3.43382e-06
2.50946e-08
-5.95102e-06
4.48114e-06
-1.7952e-08
-5.92852e-06
5.92852e-06
-1.14649e-08
5.97151e-06
2.86056e-09
-4.7339e-09
9.298e-09
9.5813e-09
5.97377e-06
-2.25815e-09
3.51554e-09
5.97221e-06
-5.97227e-06
5.35189e-11
4.3106e-06
-4.3106e-06
-5.95988e-06
5.94707e-06
1.28105e-08
5.93844e-06
-5.93235e-06
-6.08884e-09
-8.38294e-09
5.97004e-06
3.73406e-09
5.97032e-06
1.89186e-09
-2.22909e-09
5.97088e-06
5.96508e-06
-5.96838e-06
3.29651e-09
-6.02265e-06
-5.94601e-06
-1.3874e-08
4.59694e-06
-5.63184e-08
5.95975e-06
5.3326e-09
4.99496e-08
5.96427e-06
-5.95774e-06
-6.53405e-09
-4.26008e-06
4.26008e-06
3.342e-08
5.93851e-06
-5.92754e-06
5.93707e-06
-9.52545e-09
5.96301e-06
1.26142e-09
4.56238e-08
4.45837e-06
5.95595e-06
-5.95369e-06
-2.25506e-09
-5.90898e-06
-1.85641e-08
5.93915e-06
-5.944e-06
4.85867e-09
5.9521e-06
3.85236e-09
5.9631e-06
7.21745e-09
-5.91052e-08
-5.89428e-06
-9.64132e-09
-5.25285e-07
-4.00465e-06
5.9298e-06
-5.93555e-06
5.75017e-09
1.77665e-07
4.13294e-06
5.95519e-06
-5.9496e-06
-5.58793e-09
-5.27179e-09
-1.01982e-07
-4.95322e-06
5.05521e-06
-4.31354e-06
4.36267e-06
-4.91269e-08
-5.90198e-06
5.90388e-06
-1.89844e-09
5.94832e-06
6.86954e-09
-5.93073e-06
-3.7072e-06
5.99135e-06
5.95066e-06
-5.9422e-06
-8.45609e-09
-5.95643e-06
5.95658e-06
-1.50048e-10
5.93933e-06
-5.93395e-06
-5.38024e-09
-5.77596e-07
-5.09428e-06
5.67187e-06
5.94454e-06
6.11674e-09
-5.90651e-06
4.5304e-09
5.95152e-06
-5.94389e-06
-7.62176e-09
4.47148e-06
-4.57941e-06
4.57941e-06
5.9493e-06
-5.9381e-06
-1.12034e-08
-1.14979e-08
5.9517e-06
-9.35431e-09
-4.47771e-06
5.94091e-06
8.3948e-09
-5.95588e-06
-1.11222e-08
-5.89744e-06
5.90058e-06
-3.13946e-09
5.95651e-06
3.23787e-09
1.00658e-07
5.89658e-06
-1.22704e-09
5.95095e-06
1.5101e-08
4.45733e-06
2.38023e-08
6.98051e-10
-5.90327e-06
5.83444e-09
4.54581e-07
1.65215e-08
1.92053e-07
5.93377e-06
-5.93934e-06
5.56347e-09
-5.89118e-06
5.89804e-06
-6.85854e-09
1.05716e-07
-4.46378e-06
4.35807e-06
7.97896e-07
-4.64958e-06
3.85169e-06
1.70429e-06
4.21558e-06
-4.21558e-06
5.92967e-06
-5.92967e-06
-4.88117e-06
2.72556e-09
-5.94089e-06
4.55049e-06
5.94962e-06
1.33834e-08
-1.12204e-06
-2.08672e-06
3.20876e-06
-5.89979e-06
8.60536e-09
-5.9031e-06
-1.91592e-07
2.52275e-06
-4.16253e-06
1.63978e-06
-4.06963e-09
4.03242e-08
5.8984e-06
1.54814e-08
4.46945e-06
-5.95807e-06
1.25373e-08
5.93404e-06
3.78538e-06
-4.61882e-06
8.33438e-07
3.85184e-06
-1.32908e-06
-7.41858e-09
-5.92833e-06
5.95895e-06
-5.91863e-06
-5.94188e-06
-5.8834e-06
5.87781e-06
5.58662e-09
1.31988e-09
5.94433e-06
5.92351e-06
6.15743e-09
5.41274e-06
-3.59245e-06
-1.82029e-06
-2.09102e-08
4.52183e-06
5.94271e-06
9.39168e-09
5.41072e-06
-5.98831e-06
4.02004e-08
5.89824e-06
-7.00927e-09
-5.92625e-06
-5.89029e-06
6.88776e-09
-4.32675e-06
1.32148e-08
4.54625e-06
-3.64519e-06
-9.01056e-07
5.91294e-06
-5.91345e-06
5.09764e-10
-6.89925e-09
1.70636e-06
-2.39825e-06
-2.24671e-06
4.64496e-06
5.92396e-06
-5.93307e-06
9.11444e-09
4.7191e-06
-4.66313e-06
-1.63734e-08
4.52126e-06
-3.88256e-06
2.76052e-06
5.91799e-06
-5.92393e-06
5.947e-09
5.95201e-06
-5.91181e-06
-4.45868e-06
1.48073e-07
-4.47584e-06
4.47023e-06
5.61299e-09
4.34811e-06
-4.4501e-06
9.43575e-08
5.89463e-06
-4.51615e-06
4.37983e-06
-1.59538e-07
5.94279e-06
-5.93559e-06
-7.20227e-09
4.6271e-06
-4.41984e-06
-2.0726e-07
5.92351e-06
-3.57758e-09
-5.92679e-06
-4.38102e-06
1.44535e-08
5.49343e-07
3.3654e-06
-3.91474e-06
-5.87589e-06
5.86951e-06
6.3755e-09
5.91416e-06
2.07139e-08
-3.74549e-06
-7.85582e-07
4.30615e-08
5.89627e-06
5.93296e-06
-5.94681e-06
1.38562e-08
5.92568e-06
-1.09447e-08
-5.90706e-06
-4.63294e-06
-7.81023e-07
5.93599e-06
1.23298e-08
6.3112e-06
-1.29423e-06
-3.59598e-08
5.93011e-06
-5.89415e-06
5.92747e-06
5.4856e-09
-5.88426e-06
8.37295e-09
-5.90131e-06
-4.22844e-08
-1.13165e-08
5.85087e-06
-5.83955e-06
7.7005e-09
5.92766e-06
5.95279e-06
-5.90973e-06
-5.93404e-06
-2.20899e-08
4.5242e-06
-6.21082e-09
4.48741e-06
-2.3146e-07
-4.25595e-06
6.0426e-08
4.42698e-06
-5.85922e-06
5.84791e-06
-5.93316e-06
-1.28446e-08
3.76639e-06
7.79863e-07
-2.24807e-08
4.58908e-06
-4.5666e-06
-3.80187e-06
-3.18013e-06
3.72947e-06
-4.95923e-06
6.13316e-07
4.34591e-06
5.92513e-06
4.5233e-09
-5.93194e-06
5.89019e-08
5.90005e-06
5.91624e-06
-5.91712e-06
8.74655e-10
5.92918e-06
-5.91153e-06
-1.76494e-08
-5.93719e-06
3.90189e-09
-8.5539e-09
-4.4801e-06
4.48866e-06
8.67493e-10
5.93582e-06
-4.11825e-06
1.20556e-06
-5.92942e-06
5.9261e-06
3.32365e-09
-5.86763e-06
5.86064e-06
6.99436e-09
5.78486e-08
4.84942e-06
-4.70817e-06
3.55469e-06
-8.52969e-08
-3.08036e-08
5.93343e-06
-5.90263e-06
-5.29069e-06
2.89244e-06
5.92306e-06
5.24585e-09
-5.93051e-06
5.92923e-06
1.53128e-08
-5.54167e-06
5.55541e-08
5.48612e-06
9.28294e-09
-5.87691e-06
5.91752e-06
-5.9113e-06
-6.21905e-09
-1.87531e-07
5.95253e-06
-5.765e-06
-8.86988e-09
-1.21692e-06
5.57051e-06
-4.35359e-06
-4.45868e-06
-4.94357e-06
5.92125e-06
-3.25946e-09
5.19952e-08
5.90002e-06
5.77311e-06
5.97718e-06
-5.97268e-06
-4.50169e-09
8.87018e-11
-4.48743e-06
4.48734e-06
-5.92465e-06
5.92063e-06
4.02227e-09
1.19693e-07
-4.46179e-06
4.3421e-06
5.93249e-06
-5.93002e-06
-2.46979e-09
-4.59347e-06
4.57099e-06
5.91504e-06
-5.91048e-06
-4.55485e-09
1.65975e-08
5.91258e-06
-6.47821e-08
5.94652e-06
-5.92845e-06
6.13409e-08
-4.37289e-06
5.92814e-06
-5.92712e-06
-1.01965e-09
5.92524e-06
3.46115e-09
-5.92759e-06
5.89491e-06
1.25158e-08
-5.90742e-06
1.41363e-09
5.9289e-06
-5.9123e-06
-1.40958e-08
-4.48952e-06
4.50361e-06
3.18354e-06
-4.68435e-06
1.50081e-06
-9.97671e-07
-4.544e-06
-4.3529e-06
-9.78991e-07
-3.82093e-06
-5.92162e-06
3.41426e-08
5.88748e-06
-4.51688e-06
4.48952e-06
2.73661e-08
-1.37457e-06
-3.63339e-06
-5.91856e-06
5.28367e-06
-5.90632e-06
5.91672e-06
-1.04041e-08
-4.93631e-06
4.90603e-07
4.44571e-06
4.71249e-06
-3.62123e-06
-1.09126e-06
-5.92701e-06
1.18836e-08
5.91512e-06
4.49676e-06
-4.44058e-06
1.23984e-08
5.90512e-06
-5.92766e-06
6.02049e-09
5.9225e-06
5.92165e-06
1.92631e-08
-9.83466e-10
-5.92605e-06
-1.91704e-08
-5.91025e-06
-5.91225e-06
4.49147e-06
-4.43591e-06
-2.51675e-08
1.26601e-06
3.91848e-06
-4.05629e-06
4.05629e-06
5.1425e-08
5.90137e-06
-6.71805e-06
-5.46557e-06
5.46566e-06
5.92968e-06
4.48821e-06
-4.45586e-06
-5.92056e-06
5.90139e-06
-5.0042e-06
5.12389e-06
5.91643e-06
-5.91127e-06
-5.16856e-09
7.16472e-09
5.92264e-06
-5.99186e-06
4.5086e-06
-4.5227e-06
-5.91889e-06
9.9137e-09
2.2291e-06
5.93339e-06
-5.92618e-06
-7.20754e-09
-5.92953e-06
5.91672e-06
-5.91178e-06
-4.93469e-09
-5.91572e-06
-5.90664e-09
5.90319e-06
-5.8851e-06
-4.52588e-06
5.44026e-06
5.91161e-06
-5.90967e-06
-1.93995e-09
-1.04327e-08
5.90534e-06
-4.51688e-06
3.91477e-06
-4.24271e-06
3.27939e-07
-7.28254e-06
7.28254e-06
5.92687e-06
5.92803e-06
-1.50137e-08
9.92548e-09
-5.92636e-06
5.94693e-06
-2.05658e-08
5.91493e-06
-5.90998e-06
-4.949e-09
-4.90835e-06
4.67499e-06
1.82567e-08
5.91186e-06
-5.92693e-06
1.60002e-08
5.91093e-06
-5.90959e-06
5.92236e-06
-5.91443e-06
-4.53883e-06
-5.92202e-06
1.97722e-08
5.90225e-06
-4.54544e-06
-1.27788e-08
4.4361e-06
-4.46973e-06
3.36359e-08
5.90717e-06
-5.91215e-06
4.97903e-09
1.09342e-07
-5.92193e-06
5.91211e-06
9.81608e-09
5.91808e-06
-4.3393e-06
-4.30877e-06
-7.22469e-08
5.92576e-06
-5.92576e-06
-3.02902e-08
4.50177e-06
-5.9225e-06
5.91383e-06
-5.90889e-06
-4.93833e-09
5.92489e-06
-3.30045e-08
-5.91735e-06
-4.40517e-06
-5.48059e-07
-4.51659e-06
3.53985e-06
-3.95382e-06
4.13967e-07
-8.86503e-07
-3.82305e-06
4.70955e-06
5.90297e-06
-5.88734e-06
3.82599e-06
-4.46378e-06
-1.27504e-08
-5.91426e-06
5.91701e-06
-5.9121e-06
-4.908e-09
4.54577e-06
-4.56834e-06
-1.2503e-06
-8.25542e-07
2.07584e-06
-4.71548e-06
4.75505e-06
4.56219e-06
-4.50177e-06
-1.78663e-08
-4.42416e-06
4.44203e-06
-2.10925e-08
-4.39036e-06
4.41145e-06
1.48326e-08
-4.60044e-06
4.58561e-06
4.20854e-08
-4.61897e-06
4.57688e-06
2.1272e-08
-4.5262e-06
4.50493e-06
-8.7604e-09
-4.42982e-06
4.43858e-06
-1.01551e-08
-4.42612e-06
4.43627e-06
2.66452e-06
-1.79534e-06
-8.69174e-07
3.92985e-06
2.88305e-08
5.9046e-06
4.3323e-06
-4.35697e-06
2.46712e-08
1.39144e-08
-5.91468e-06
5.90076e-06
5.92998e-06
-5.92998e-06
5.85145e-06
-1.41695e-09
-5.85003e-06
-1.97018e-08
-5.90086e-06
5.91339e-06
-5.90824e-06
-5.14892e-09
-3.6754e-06
-4.82589e-06
-1.10422e-07
3.87512e-06
7.51976e-07
5.92524e-06
-5.91728e-06
-7.96225e-09
-4.51033e-06
4.68667e-06
1.96213e-08
5.90928e-06
-3.25086e-06
-2.03983e-06
4.38335e-08
4.24554e-06
-4.28937e-06
-3.03151e-06
-5.12905e-07
-1.01715e-06
-6.29931e-07
1.64708e-06
4.44875e-06
4.44946e-06
4.64391e-06
4.64407e-06
4.61177e-06
4.5526e-06
-2.07402e-08
-4.46076e-06
4.48151e-06
4.46323e-06
-5.89608e-09
-1.75807e-06
5.9153e-06
-5.90138e-06
-1.46106e-07
4.75789e-06
-5.93323e-06
-4.05062e-06
5.00763e-06
5.84363e-06
5.08922e-09
-5.84872e-06
5.93776e-06
-1.19973e-08
-5.925e-06
2.12473e-08
5.90375e-06
-4.46863e-06
-4.4801e-06
4.47945e-06
-4.5002e-06
-4.07704e-06
4.92532e-06
-8.48281e-07
-1.05794e-08
-5.91144e-06
3.08857e-06
-3.85279e-06
9.76749e-09
-5.92106e-06
-5.91409e-06
-1.57327e-06
-2.30929e-06
-5.9035e-06
-1.11787e-08
4.53262e-06
1.41422e-06
3.44635e-06
5.90766e-06
-5.90311e-06
-4.55142e-09
4.50364e-06
-2.98291e-06
-1.52073e-06
-2.14426e-06
1.12711e-06
-2.48521e-06
5.37765e-06
-2.15504e-06
4.48e-06
-2.32497e-06
1.83201e-09
5.92213e-06
-5.88165e-06
5.91177e-06
-5.91522e-06
3.45167e-09
-3.34845e-06
1.42825e-06
1.9202e-06
-1.97676e-08
-4.45947e-06
4.47923e-06
6.19241e-06
-2.74189e-06
-3.45053e-06
4.40694e-09
5.84704e-06
-1.28702e-06
-2.06144e-06
-4.32056e-06
4.36439e-06
3.68565e-06
2.44198e-07
-4.29932e-06
-9.09025e-09
-4.4657e-06
4.47479e-06
4.61324e-06
-4.4703e-06
-2.74686e-06
-1.04119e-06
3.78805e-06
-5.90275e-06
5.90446e-06
-1.71266e-09
-4.3647e-06
4.42604e-06
5.90929e-06
-5.91312e-06
-3.95063e-06
-1.05661e-07
-5.9532e-06
5.93069e-06
-3.08236e-06
4.46393e-09
5.91226e-06
5.15707e-06
-2.85016e-06
-2.3069e-06
4.36578e-06
-8.25933e-07
4.87661e-06
-6.31065e-07
4.47232e-06
-4.49209e-06
5.90123e-06
-5.90151e-06
2.81926e-10
4.47737e-06
-4.48646e-06
5.42743e-09
-5.89822e-06
5.89279e-06
-2.48815e-06
-5.94209e-07
1.08022e-08
-4.53668e-06
-5.91486e-06
8.35494e-09