/*--------------------------------*- C++ -*----------------------------------*\
  =========                 |
  \\      /  F ield         | OpenFOAM: The Open Source CFD Toolbox
   \\    /   O peration     | Website:  https://openfoam.org
    \\  /    A nd           | Version:  12
     \\/     M anipulation  |
\*---------------------------------------------------------------------------*/
FoamFile
{
    format      ascii;
    class       volVectorField;
    location    "0.21";
    object      U;
}
// * * * * * * * * * * * * * * * * * * * * * * * * * * * * * * * * * * * * * //

dimensions      [0 1 -1 0 0 0 0];

internalField   nonuniform List<vector> 
4428
(
(0.00159759 0.000606088 1.01428e-16)
(-0.00161787 0.000667417 -9.03819e-17)
(-0.00145943 0.000668109 0)
(-0.00152164 0.000641589 0)
(0.00146419 0.00121242 8.16383e-17)
(0.0015128 0.00124257 3.21761e-21)
(-0.00145412 0.000830989 0)
(-0.00163233 0.00058228 1.46409e-16)
(0.00156571 0.000638012 -2.49063e-16)
(0.00161419 0.00047075 9.95366e-17)
(-0.00148088 0.000517093 -1.73328e-16)
(0.00149977 0.000627558 -1.76861e-16)
(-0.00167545 0.000357434 -2.03656e-16)
(-0.000524206 0.00187829 -9.58145e-17)
(0.00157302 0.000611687 0)
(0.00143404 0.000528657 0)
(0.00162098 0.000582232 0)
(-0.00148187 0.000515501 0)
(-0.00168561 0.000355993 0)
(0.00158922 0.000614023 0)
(0.000565917 0.000464405 -4.48033e-16)
(-0.0016105 0.000617894 -1.777e-16)
(-0.00152104 0.000645827 0)
(-0.00165246 0.000567552 0)
(-0.00160303 0.000611672 2.26614e-17)
(-0.00152138 0.000565431 0)
(-0.00153687 0.000810897 1.03355e-16)
(0.001543 0.000504227 2.07801e-16)
(0.00143944 0.000708381 0)
(-0.0016942 0.000393211 0)
(0.00156591 0.000388528 0)
(-0.00162915 0.000616178 -1.84202e-16)
(0.00159381 0.000506736 -9.00185e-17)
(-0.00165358 0.000801413 -2.77418e-16)
(-1.091e-05 0.00217349 4.69765e-17)
(-0.00162513 0.000633229 1.9986e-16)
(-0.00159191 0.000799684 -4.43087e-21)
(0.00147969 0.0019944 1.27041e-17)
(-0.000240918 0.00188309 -2.6223e-17)
(-0.00152471 0.00066831 0)
(0.00160133 0.000576742 0)
(0.00145968 0.000471241 0)
(0.00152826 0.000521147 9.24308e-17)
(-0.00165964 0.000534031 1.66056e-16)
(0.00159512 0.000508095 0)
(0.00130403 0.000487258 0)
(0.00152891 0.00146126 -9.97822e-17)
(-0.0015209 0.000736382 2.03141e-16)
(-0.00154333 0.000646762 2.24457e-16)
(-0.0015907 0.000699102 0)
(0.00159393 0.000666196 0)
(0.00143088 0.000681897 1.88121e-16)
(0.00162547 0.000465268 -9.13174e-17)
(0.00145077 0.000699794 0)
(0.00148111 0.00062589 -1.39782e-17)
(0.000956721 0.000458223 0)
(0.00141664 0.000672596 -9.29916e-17)
(-0.00155966 0.000512264 0)
(0.00133019 0.00142562 1.82958e-16)
(0.0015596 0.000537172 -1.82009e-16)
(0.0016307 0.0006274 1.67095e-16)
(-0.00162794 0.000518901 0)
(0.00142143 0.000566523 2.79949e-16)
(-0.00162539 0.000613224 9.26971e-17)
(-0.00162159 0.000634496 0)
(0.00149475 0.000657079 0)
(-0.00165808 0.000543482 1.73155e-16)
(-0.00153417 0.000653991 -1.85818e-16)
(0.00154363 0.000550932 -1.82183e-16)
(-0.00157004 0.000683447 -3.61904e-16)
(-0.00166448 0.000520732 -9.16121e-17)
(0.00156823 0.000713535 2.1265e-16)
(0.00169624 0.000739535 5.80497e-17)
(-0.00150986 0.000627995 4.46948e-17)
(0.00159122 0.000556193 1.96647e-16)
(-2.80248e-05 0.00215122 -1.83292e-16)
(0.00162379 0.000743018 0)
(0.00167124 0.000649363 0)
(-0.00146867 0.000837187 -1.18142e-16)
(0.00114413 0.000543548 -4.36001e-21)
(0.0014257 0.000730945 -1.97536e-16)
(-0.00165215 0.000523319 0)
(0.00153469 0.000733383 -1.81061e-16)
(0.00154439 0.000639283 -1.72064e-16)
(0.00162267 0.000579346 3.18301e-16)
(-0.00176414 0.000564043 -2.54685e-16)
(-0.000203925 0.00241544 1.15141e-16)
(-0.00165013 0.000603944 0)
(-0.00162123 0.000619866 -9.6033e-17)
(0.00148355 0.000650886 2.04739e-17)
(0.00159277 0.000479622 8.36641e-17)
(0.00163328 0.000584659 -1.59366e-16)
(-0.00163827 0.000651944 0)
(-0.00161766 0.000601791 0)
(-0.00162151 0.00063527 9.81682e-17)
(-0.00157611 0.000657464 1.67118e-16)
(0.00160018 0.000635963 1.13529e-16)
(-0.00164065 0.000622775 -1.19901e-16)
(-0.00166645 0.000516334 9.28696e-17)
(0.00150366 0.000804119 0)
(0.00151142 0.000685646 -2.25139e-17)
(0.00156066 0.00061126 0)
(0.00159975 0.000564463 0)
(0.00144637 0.000541475 -1.87984e-16)
(0.00140143 0.000654596 -1.03701e-16)
(0.00147283 0.000712655 2.49466e-21)
(0.00155622 0.000640601 1.90324e-16)
(-0.00159521 0.000761751 -1.22454e-16)
(0.00160002 0.000635334 -1.20821e-16)
(0.00152769 0.000748316 0)
(0.00155748 0.000519041 1.64694e-16)
(0.00156663 0.000602 -1.94802e-16)
(-0.00150902 0.000619759 2.6481e-21)
(0.00149015 0.000565402 1.65963e-16)
(-0.000899535 0.000566293 1.15541e-16)
(-0.00166012 0.000506686 1.80231e-16)
(-0.00036248 0.00209219 0)
(0.000645924 0.000503259 5.24744e-17)
(-0.00167967 0.000558723 8.87642e-17)
(0.00167129 0.000646799 -1.12859e-16)
(0.00165624 0.000645699 2.11528e-16)
(-0.00147029 0.000843346 2.41274e-16)
(0.00108367 0.00177316 -1.96893e-16)
(0.00158055 0.000511849 -3.03616e-16)
(-4.80736e-06 0.00217389 1.78757e-16)
(-0.00162659 0.000613212 0)
(-0.00165027 0.000556376 -2.72255e-16)
(0.00150142 0.000624748 9.9508e-17)
(-0.00162246 0.000661095 -3.04097e-16)
(-0.00162412 0.0006322 9.66758e-17)
(-0.00166316 0.000525239 -1.87131e-16)
(-0.00159282 0.000656173 0)
(0.00160446 0.000640976 2.24124e-16)
(0.00153887 0.000575273 0)
(0.00156055 0.000608992 0)
(0.00166766 0.000720312 6.54156e-21)
(0.00163651 0.000683323 -2.43667e-16)
(-0.0016566 0.000513169 -1.82386e-16)
(-0.00162777 0.000629268 -1.83549e-16)
(-0.00161217 0.000653467 1.43947e-16)
(-0.00160199 0.000770541 -1.23705e-16)
(-0.00162944 0.000588941 -9.67475e-17)
(0.00153616 0.000615553 0)
(0.00154474 0.000629554 -1.99427e-16)
(0.00161836 0.000607097 0)
(0.00152487 0.000585926 9.67638e-17)
(0.00163648 0.000733673 1.28473e-16)
(-4.1876e-05 0.0015441 -9.13939e-17)
(0.00170783 0.000474634 2.88885e-16)
(-2.72457e-06 0.00216822 4.54403e-17)
(-0.00162552 0.000613158 -1.99511e-16)
(-0.00105906 0.000470628 1.00283e-16)
(0.00152458 0.000501258 -9.60593e-21)
(0.00169753 0.000587176 -2.48621e-16)
(-0.00162301 0.000631884 2.91592e-16)
(0.0016499 0.000617005 0)
(0.00149171 0.00100613 -1.77126e-16)
(0.00160649 0.000480207 -9.48475e-17)
(0.0015732 0.000578283 -1.78766e-16)
(-0.00163976 0.000536346 -9.12336e-17)
(-0.00161632 0.000671486 1.95446e-16)
(0.00157699 0.000622955 0)
(0.00169224 0.000531103 0)
(-0.00056994 0.000255082 -2.17177e-16)
(-0.00172033 0.000715277 1.19563e-16)
(-0.001658 0.000518106 0)
(-0.0016206 0.00059395 0)
(0.00168944 0.000561774 0)
(-0.00161906 0.000627112 1.90947e-21)
(-0.0016344 0.00070028 9.36779e-17)
(-0.0016616 0.000546742 -9.3799e-17)
(0.00162944 0.000645003 3.96683e-21)
(-0.00163449 0.000616627 0)
(0.00147426 0.000619863 0)
(0.00149913 0.00194303 -1.16373e-17)
(-0.0017391 0.000725786 2.29075e-16)
(0.00163784 0.000592826 0)
(0.00143482 0.000717689 2.14588e-16)
(0.00153167 0.000644617 2.17938e-16)
(-0.00173814 0.000705664 1.14318e-16)
(-0.000191966 0.0021887 -7.07733e-21)
(-0.0015683 0.000644278 1.75077e-16)
(-0.00163758 0.000574369 1.9195e-16)
(0.00149612 0.000576644 0)
(-0.00162473 0.000613571 3.0057e-16)
(-0.00161854 0.000748018 -9.52165e-17)
(0.00161091 0.000623413 0)
(-0.0016208 0.000630787 0)
(0.00137332 0.000597246 3.43569e-16)
(0.00158212 0.000700245 0)
(0.00157121 0.000574085 0)
(0.00164245 0.000783229 2.58468e-17)
(0.00159706 0.000568663 0)
(0.00162195 0.000675438 -3.6787e-16)
(-0.00157841 0.000741124 0)
(-0.00157108 0.000731563 -1.80866e-16)
(-0.00157069 0.000729587 2.70922e-16)
(-0.00154827 0.00071659 8.88771e-17)
(0.00220864 0.00127901 1.48756e-16)
(-0.000493305 0.00231718 0)
(0.00160257 0.000729137 2.13763e-16)
(-0.00163621 0.000592374 -1.94079e-16)
(0.00126178 0.0006753 -1.90308e-16)
(-0.00164582 0.000535277 0)
(0.00146009 0.000562732 -1.7663e-16)
(0.00158482 0.000556861 -2.98057e-18)
(-0.00161578 0.00062861 9.32577e-17)
(-0.000358972 0.00251003 -1.77906e-16)
(-0.000784503 0.00217448 1.1184e-17)
(0.00107503 0.000565109 0)
(0.00162021 0.000694547 0)
(0.00174105 0.000623357 0)
(0.00161506 0.000678857 5.94745e-21)
(-0.00163349 0.000575388 0)
(0.00157768 0.000600003 0)
(-0.00158951 0.000724946 -1.40088e-16)
(-0.0015726 0.000714702 1.83783e-16)
(3.18157e-05 0.00217088 -1.84691e-16)
(-0.00152812 0.000579387 1.99298e-16)
(-0.00156411 0.000725408 -4.53591e-17)
(0.00161524 0.00067099 1.95363e-16)
(0.00168714 0.000590593 -6.15112e-17)
(-0.00161191 0.000627309 1.85469e-16)
(0.00164861 0.000711284 0)
(-0.00157818 0.0007302 0)
(-0.00162454 0.000614533 0)
(-0.00164757 0.000627502 -1.08726e-16)
(0.00157076 0.00056595 -1.93043e-16)
(0.00150033 0.000628014 3.74258e-21)
(-0.00162017 0.000630619 0)
(-0.00162601 0.000590981 9.83238e-17)
(-0.000998837 0.00198207 0)
(0.00136598 0.000817304 0)
(0.000239687 0.0023954 8.6174e-17)
(0.0015281 0.000612785 5.74625e-17)
(-0.00158747 0.000707685 0)
(-0.0015798 0.000720817 0)
(-0.0015789 0.000716121 1.88217e-16)
(-0.00158531 0.000713658 -1.86173e-16)
(-0.00164274 0.000544309 2.97768e-16)
(-0.000160405 0.00040057 5.13887e-17)
(-0.00165208 0.000632671 -5.9006e-17)
(-0.00156023 0.000715541 6.23698e-17)
(0.00158546 0.000623371 2.23735e-17)
(-0.00163076 0.000580248 -9.62581e-17)
(-0.000446677 0.00162321 -1.01155e-16)
(-0.00161265 0.000770119 1.89326e-16)
(-0.00163303 0.000583089 1.92815e-16)
(0.00187921 0.00125659 0)
(-0.000182333 0.00163787 0)
(-0.00169856 0.000703903 6.10846e-21)
(0.00154174 0.00061359 2.04395e-16)
(0.00163038 0.000665788 -1.05649e-16)
(-0.0015754 0.000714768 1.81888e-16)
(0.001416 0.000527019 -1.31317e-16)
(0.000278177 0.000189255 1.07918e-16)
(-0.00158062 0.000716616 -3.65587e-16)
(3.16963e-05 0.00215628 0)
(-0.00185033 0.000671744 -3.66786e-17)
(-0.00159124 0.000713191 -2.11762e-16)
(-0.00158572 0.00071402 1.90019e-16)
(-0.000561844 0.000284697 2.17218e-16)
(-0.00162443 0.00059479 0)
(0.00170497 0.000374004 1.23012e-16)
(-0.00157878 0.00071233 -9.37845e-17)
(-0.00161436 0.000627201 -1.00072e-16)
(0.00161484 0.000585627 0)
(-0.00158166 0.000715484 0)
(-0.00109403 0.00239575 1.37276e-16)
(-0.00167589 0.000566124 -1.83737e-16)
(0.00157426 0.000543993 0)
(0.00164521 0.000744588 2.37178e-16)
(0.0015746 0.000627378 1.23124e-17)
(-0.000331499 0.00175254 2.5844e-16)
(-0.00162573 0.000614568 0)
(0.00153043 0.000647603 1.98131e-16)
(0.00158909 0.000607675 -2.63561e-16)
(-0.00162768 0.000589877 1.94297e-16)
(0.00167251 0.000789053 0)
(0.000266999 0.000186113 -1.10465e-16)
(-0.00174896 0.000731681 -2.37573e-22)
(-0.00029479 0.00223425 9.63403e-17)
(0.0015804 0.000590772 0)
(-0.00163967 0.000551536 -2.99176e-16)
(0.00146162 0.000831036 3.93345e-16)
(0.00143631 0.000841491 -9.12438e-17)
(0.00159524 0.000624256 -1.3295e-17)
(0.00159691 0.000537768 -1.26247e-16)
(0.00159623 0.000630287 1.94437e-16)
(0.00161331 0.000593456 0)
(-0.00178364 0.00054742 1.43578e-16)
(-0.00168318 0.000547972 -1.87091e-16)
(-0.00159216 0.000702822 -7.47195e-19)
(0.00151302 0.000722304 0)
(0.00148206 0.000638578 2.14671e-16)
(0.000510933 0.000187977 2.31986e-16)
(-0.00161574 0.000602798 1.95533e-16)
(-0.00157708 0.000710896 2.07962e-16)
(-0.00161262 0.000725831 0)
(-0.000997615 0.00233886 1.96761e-16)
(-0.00163065 0.000593608 5.91592e-21)
(0.00150472 0.000556723 1.14694e-16)
(-0.00162284 0.000597972 0)
(-0.0015872 0.000712051 -1.18783e-17)
(-0.00158612 0.000716837 0)
(-0.00158527 0.000715347 -1.85911e-16)
(-0.00163411 0.000631531 0)
(-0.000215085 0.00238969 -1.19591e-16)
(0.00108066 0.000597505 -3.44558e-16)
(0.00157839 0.000788814 1.25596e-16)
(-0.00162745 0.000594653 9.79709e-17)
(0.00155463 0.000613365 0)
(0.00166182 0.000774543 -1.26566e-16)
(-0.000274727 0.0023691 -1.90453e-16)
(0.000979527 0.000329501 -2.23906e-16)
(0.00157545 0.000645342 0)
(0.00161788 0.000707952 0)
(0.00156266 0.000664618 -1.87616e-16)
(-0.00163727 0.000560056 0)
(-0.00161629 0.000616844 1.9657e-16)
(-0.000399494 0.00260693 -6.17603e-18)
(-0.0017142 0.00072509 -1.01491e-16)
(-0.00150391 0.000578418 6.10876e-17)
(0.00154576 0.000598808 3.89323e-16)
(-0.00115326 0.00355716 -1.46076e-16)
(0.00264484 0.00104098 -1.97876e-16)
(0.00150102 0.000670708 -2.12584e-16)
(-0.0016063 0.000620618 9.64304e-17)
(-0.00160672 0.000745578 -1.21773e-17)
(-0.00157318 0.000721966 -1.89494e-16)
(0.00157183 0.000599426 2.09789e-16)
(-0.00161042 0.000612343 0)
(-0.00162339 0.000599456 9.90847e-17)
(-0.00184795 0.000666537 1.50958e-16)
(-0.00163077 0.000769328 0)
(-0.00160725 0.000729445 0)
(0.00167421 0.000762565 -1.23283e-16)
(0.0014932 0.000579986 0)
(-0.00162128 0.000615534 0)
(0.00151211 0.000562708 0)
(-0.00158807 0.000715937 1.18323e-17)
(-0.00160545 0.000709334 7.54735e-19)
(0.00146954 0.000496925 0)
(0.0015916 0.000603524 1.9289e-16)
(-3.31642e-05 0.00216996 0)
(0.00156767 0.000528901 0)
(-0.00162885 0.000597537 4.92538e-17)
(-0.00163881 0.00058757 -3.01484e-16)
(0.000168061 0.000967199 0)
(-0.00161214 0.000619048 -1.93418e-16)
(-0.00167221 0.000374466 9.23819e-17)
(-0.00167247 0.000659278 -4.27744e-21)
(-0.00173698 0.000589612 -2.43396e-16)
(-0.00184859 0.000653444 1.5116e-16)
(-0.00158984 0.000745696 0)
(-0.00164039 0.000568429 2.02115e-16)
(-0.00161057 0.000618782 1.00295e-16)
(0.00158397 0.000597227 0)
(-0.00159549 0.000555791 1.62546e-16)
(-0.0016164 0.000606452 -2.68739e-16)
(1.95437e-05 0.0021109 0)
(-0.00158171 0.000709889 -2.80437e-16)
(-0.00163732 0.000664184 0)
(-0.00162859 0.000606722 0)
(0.00161245 0.000597761 2.03117e-16)
(-0.00162248 0.000593756 1.01385e-16)
(0.00141082 0.000515328 2.14782e-16)
(0.00161279 0.000647277 -2.03932e-16)
(-0.00114233 0.000551227 0)
(-0.00172213 0.00057972 0)
(-0.00161286 0.000619509 0)
(0.00157963 0.000613656 -2.12709e-16)
(0.00159189 0.00067385 0)
(0.00159061 0.000608275 0)
(-0.00172863 0.000749996 -2.99363e-16)
(0.000216173 0.00214103 2.17985e-16)
(-0.0015976 0.000739419 1.92279e-16)
(0.00163058 0.000503567 -2.15589e-16)
(-1.93909e-05 0.00112916 -6.19432e-17)
(-0.00162158 0.000632381 0)
(-0.00161814 0.000684306 2.99755e-16)
(-0.00155154 0.000726031 -1.80339e-16)
(0.000153544 0.00165188 1.08287e-16)
(0.00166724 0.000353806 0)
(0.0017307 0.000459463 1.14707e-16)
(0.0015257 0.000648355 1.77801e-16)
(-0.00032867 0.000249934 2.10734e-16)
(-0.00161524 0.000601675 -9.03931e-17)
(0.00159362 0.000629503 0)
(0.000989098 0.000371174 0)
(0.00135717 0.000420779 3.8649e-16)
(-0.00161472 0.000621109 0)
(0.00167526 0.000549112 -1.07229e-16)
(-0.00172261 0.000454574 1.26093e-16)
(-0.001625 0.000618711 9.5812e-17)
(0.0015393 0.000617387 -1.95167e-16)
(-0.00181189 0.000683044 -1.3598e-16)
(-0.00151174 0.000631592 1.84899e-16)
(-0.00176837 0.000813905 1.01008e-16)
(-0.0012072 0.000472291 -1.08943e-16)
(-0.0016292 0.000615236 0)
(-0.00162199 0.000616985 0)
(-9.74322e-05 0.000812415 0)
(-6.66791e-06 0.00210653 -2.5098e-16)
(-0.00173384 0.000614508 0)
(-0.00163891 0.000802182 -8.72303e-17)
(0.00157029 0.000611491 3.76163e-16)
(0.00150939 0.00063959 -1.11175e-16)
(0.0015713 0.000565112 3.79529e-16)
(0.0015917 0.000670994 -5.49153e-17)
(0.00158227 0.00060101 -5.54951e-21)
(-0.0016076 0.000647525 -4.91289e-17)
(-0.0016124 0.000625939 -9.63667e-17)
(-0.000131409 0.00249117 5.97388e-18)
(-0.00161786 0.000622905 -1.95296e-16)
(-0.00160738 0.000671737 -5.15031e-17)
(0.00151132 0.000655317 0)
(-0.00162115 0.000622146 -9.75869e-17)
(-0.00171245 0.000630811 -3.5892e-16)
(-0.00157164 0.000706873 -1.39394e-17)
(-0.00162986 0.000609799 0)
(-0.00164321 0.000536544 4.83496e-17)
(-0.00162114 0.00060031 -9.87668e-17)
(0.0017213 0.000758428 -2.08723e-16)
(-0.00160918 0.000637601 -9.94716e-17)
(0.000215579 0.00239024 6.96547e-18)
(0.0015443 0.000563693 2.44311e-17)
(-4.60356e-05 0.00236668 -1.98859e-16)
(-0.00179623 0.000730128 2.82351e-16)
(-0.00156604 0.000528872 -3.98529e-16)
(0.00158105 0.000610355 1.03054e-16)
(-0.00179934 0.000730655 1.25936e-16)
(0.00024095 0.0012395 8.11331e-17)
(-0.00160409 0.000635611 1.9798e-16)
(0.0015351 0.000528798 1.76671e-16)
(-1.75777e-05 0.00232273 0)
(-4.47978e-05 0.00207757 -2.83925e-16)
(-0.00161026 0.000665129 -1.57228e-16)
(0.00155691 0.00053144 -5.19584e-17)
(-1.82211e-05 0.00231662 7.9027e-19)
(0.00189319 0.000752564 9.76706e-17)
(-0.00149232 0.000595558 2.95297e-16)
(-0.00162608 0.000617741 -5.09884e-17)
(-0.00164445 0.000587417 0)
(-0.00169029 0.000624386 2.29031e-16)
(0.00156071 0.000630214 -2.02296e-16)
(-0.00161267 0.00062761 -9.68012e-17)
(0.00156172 0.000614187 0)
(-3.76131e-06 0.00230372 -2.01872e-16)
(-0.00170197 0.000655808 1.20769e-16)
(0.00181328 0.00162769 -3.66325e-16)
(0.0016016 0.000609088 0)
(-1.03149e-05 0.00230414 0)
(0.00164467 0.000660153 5.95359e-21)
(6.62274e-06 0.00229761 -2.0211e-16)
(3.63023e-06 0.00230263 4.01902e-16)
(-0.0016077 0.000630641 4.98492e-17)
(-0.000143224 0.00237181 1.97707e-16)
(-6.16585e-06 0.00229575 0)
(-1.48921e-05 0.00230667 2.01155e-16)
(-0.00160935 0.00062738 0)
(0.00184819 0.00104119 0)
(7.34272e-06 0.00230062 0)
(-3.60868e-06 0.00230026 -2.01438e-16)
(-0.00160372 0.000657174 0)
(-8.13279e-06 0.00230204 4.05271e-16)
(-0.00162244 0.000614225 0)
(-3.41392e-06 0.0023017 -2.02419e-16)
(-0.00161064 0.000627243 -2.93182e-16)
(-4.09908e-06 0.00229427 0)
(-0.00159461 0.000660878 9.67025e-17)
(-0.000724376 0.0026345 -4.71364e-17)
(0.00168085 0.000745106 2.50256e-16)
(0.00170688 0.000642529 0)
(4.60616e-07 0.00229939 1.45281e-20)
(-8.98301e-06 0.00230322 -1.99388e-16)
(-0.00163381 0.000545297 -8.51746e-17)
(0.00154116 0.000689488 -2.05743e-16)
(0.00140667 0.000569448 0)
(0.00157261 0.000602536 3.10262e-16)
(-1.73295e-06 0.00230065 2.01998e-16)
(-0.00160377 0.00063005 0)
(-5.65578e-05 0.0023263 2.00562e-16)
(-1.61045e-06 0.00229552 0)
(-3.98177e-06 0.00229899 -2.04879e-16)
(-0.00161648 0.00062999 0)
(0.00158451 0.000666917 1.95266e-16)
(-0.00162173 0.000620311 2.68339e-21)
(6.13261e-07 0.00229486 2.02884e-16)
(0.00160678 0.00058833 -4.19348e-16)
(0.000234557 0.00137632 0)
(-8.26046e-06 0.00230301 0)
(0.00178274 0.000823493 1.46624e-16)
(0.00156523 0.000548722 0)
(-0.000180795 0.00246767 0)
(-0.00161926 0.000613139 -3.52289e-16)
(-6.17386e-05 0.00235636 0)
(-0.00161206 0.000626846 9.75569e-17)
(-0.00136754 0.00116718 -5.25373e-17)
(-0.00160464 0.000657692 2.01111e-16)
(5.63682e-07 0.00229597 -4.04623e-16)
(-0.00164893 0.000598749 5.41571e-17)
(-0.00159325 0.000660625 1.92963e-16)
(-2.83551e-06 0.00229795 0)
(-5.69168e-06 0.00229452 -1.98248e-16)
(0.00149536 0.000511359 0)
(7.16003e-07 0.00229947 -2.04205e-16)
(1.35294e-06 0.00229783 0)
(-0.000107617 0.00238934 2.01274e-16)
(9.6088e-06 0.00208584 -2.27203e-16)
(-0.00155092 0.000654895 1.17405e-16)
(-3.33457e-05 0.00233042 9.81724e-20)
(0.0011433 0.00033609 0)
(-0.00164842 0.000604904 7.99848e-17)
(-0.00155289 0.00066691 4.68852e-17)
(4.79532e-06 0.00229356 4.05012e-16)
(-9.13303e-06 0.00230204 2.016e-16)
(-0.00164717 0.000628127 -4.65997e-16)
(1.45217e-06 0.00229681 2.02682e-16)
(0.0014631 0.000473915 6.75301e-21)
(-1.17062e-05 0.00229759 2.006e-16)
(-0.00162648 0.000617822 0)
(-0.00160306 0.000643268 5.12178e-17)
(-1.26973e-06 0.00229835 -1.4595e-20)
(0.0015623 0.000763904 2.1008e-16)
(-0.00161836 0.00063051 -1.02841e-16)
(-0.00159577 0.000657181 -8.98992e-17)
(-5.68e-06 0.00230114 -2.01523e-16)
(0.00157221 0.000616116 3.51593e-18)
(-3.9928e-07 0.00229929 -1.45991e-20)
(-0.00163013 0.000615995 4.80862e-17)
(7.44379e-06 0.00229522 0)
(-0.00162145 0.000613078 0)
(-1.33299e-05 0.00230114 -2.01465e-16)
(1.15848e-06 0.00229836 2.02264e-16)
(0.00157199 0.000652093 -2.45278e-17)
(-0.00165425 0.000565179 2.19719e-16)
(-1.20346e-05 0.00229791 1.9977e-16)
(2.88401e-06 0.00229496 0)
(-0.00160717 0.000652095 0)
(-0.00159957 0.000657944 1.53402e-16)
(-0.00165029 0.000528331 0)
(-8.30198e-05 0.0014234 -1.08308e-16)
(-4.39474e-07 0.00229908 2.02709e-16)
(-0.00159585 0.000655707 -1.45371e-16)
(-0.00161007 0.000626825 0)
(-0.00160177 0.000610092 5.30125e-17)
(-2.16052e-05 0.00230588 1.97006e-16)
(1.43352e-07 0.00229576 -1.46726e-20)
(-0.00161303 0.000616845 -5.14125e-17)
(0.000934501 0.000112555 -2.18993e-16)
(-2.04606e-05 0.00231089 -2.00424e-16)
(-6.5149e-06 0.00230165 2.02103e-16)
(3.28966e-06 0.0022959 2.0298e-16)
(-2.25958e-07 0.00230313 -2.00154e-16)
(0.00191785 0.000971595 -1.92046e-16)
(-1.35778e-05 0.00229797 -2.01107e-16)
(-0.00162439 0.000611751 0)
(-0.00158057 0.000575344 0)
(0.00151939 0.000581636 0)
(-3.51647e-06 0.0022956 -2.03569e-16)
(-0.00159373 0.000660217 2.48141e-16)
(0.00155689 0.000579977 -1.5715e-16)
(-0.00154363 0.000624972 2.71352e-16)
(-0.00161247 0.000625908 -1.96915e-16)
(-0.00161489 0.00062397 -1.01262e-16)
(-0.00174062 0.000819447 -1.00454e-16)
(-6.54678e-06 0.00229704 -4.0579e-16)
(6.28212e-06 0.0022957 8.46294e-20)
(-0.00162584 0.000668058 -5.80043e-17)
(-0.00161592 0.000648676 4.59956e-17)
(-0.00161537 0.000628074 -5.05264e-17)
(9.20144e-06 0.0022985 -2.02615e-16)
(1.97244e-06 0.00229566 4.10223e-16)
(-1.12138e-05 0.00229814 -2.0296e-16)
(1.97599e-06 0.00229813 -7.95362e-19)
(-0.00161092 0.000639233 4.91292e-17)
(-7.82264e-06 0.00229682 0)
(1.09563e-05 0.00229735 -2.03783e-16)
(7.50436e-06 0.00229487 2.02749e-16)
(9.44738e-06 0.00229862 3.50537e-20)
(-0.00161742 0.000607394 1.02069e-16)
(-1.29645e-05 0.00231091 0)
(-0.00161811 0.000615366 -2.00615e-16)
(-0.00165209 0.000598703 0)
(0.00158278 0.00060632 -2.22458e-16)
(-8.81531e-07 0.00229712 -1.57904e-18)
(0.00151806 0.000605229 1.97902e-16)
(1.44651e-06 0.00229749 -1.45329e-20)
(-0.000140752 0.00235764 0)
(-9.36822e-05 0.00232762 -1.9927e-16)
(-0.00161756 0.00061755 0)
(-0.00163097 0.000615353 -9.86556e-17)
(1.56724e-05 0.00229496 0)
(-0.00160466 0.0006223 -2.14072e-16)
(-0.00161338 0.000632401 -1.06354e-16)
(0.00157459 0.000626174 2.1374e-16)
(8.89627e-07 0.00229597 -2.03082e-16)
(-1.30786e-05 0.00229821 -2.03158e-16)
(-0.00162092 0.000645939 5.55534e-17)
(-2.47499e-06 0.00229776 -2.00306e-16)
(-0.00159834 0.000607316 3.11584e-16)
(-1.0571e-05 0.00229638 -2.02289e-16)
(3.28636e-06 0.00229764 -1.45602e-20)
(-0.00159929 0.000676318 -2.36558e-16)
(-1.43018e-05 0.00229773 2.00628e-16)
(0.00158582 0.000599808 0)
(-0.00161103 0.000630074 -5.02509e-17)
(-8.44571e-07 0.00229663 3.1889e-18)
(-0.00162097 0.000606392 1.00774e-16)
(-3.86584e-07 0.00229603 -1.60072e-18)
(-0.0016115 0.000618882 5.04602e-17)
(-0.00152221 0.000567913 0)
(6.03611e-06 0.00229765 -1.46318e-20)
(-0.0017581 0.000741107 3.00915e-16)
(1.38635e-06 0.00229884 2.04469e-16)
(0.00145765 0.000742253 -5.87772e-17)
(-0.00153794 0.000687848 1.95204e-16)
(-5.02836e-07 0.0022974 2.04614e-16)
(0.00117461 0.000461965 2.15025e-16)
(-3.00247e-06 0.00229744 2.03319e-16)
(1.77887e-06 0.00229776 3.17268e-18)
(0.0013465 0.00049187 2.27232e-16)
(0.00144428 0.000505572 -2.1254e-16)
(0.00164225 0.00065118 0)
(-0.00171881 0.000700791 0)
(-1.31691e-05 0.00229762 -1.59107e-18)
(0.00149571 0.000566417 2.7997e-16)
(-1.27232e-05 0.00229643 -1.57971e-18)
(-0.00161503 0.000625128 -9.82423e-17)
(0.00146682 0.000504226 0)
(1.19834e-05 0.00229661 -4.05552e-16)
(1.95654e-06 0.00229692 -4.08068e-16)
(-0.00160642 0.000647656 0)
(-0.00161706 0.000606243 0)
(1.34671e-06 0.00229869 -4.05518e-16)
(-4.59436e-05 0.00232059 0)
(-0.00160575 0.000662149 -1.95479e-16)
(-3.08837e-05 0.00231013 -4.00513e-16)
(-0.00146809 0.000529691 0)
(0.00165892 0.00053495 5.24846e-17)
(1.67306e-07 0.00229454 -1.60739e-18)
(5.22288e-06 0.00229941 2.0431e-16)
(0.0012568 0.000783103 -7.03675e-18)
(6.11837e-07 0.00229689 -2.04792e-16)
(-0.00162616 0.000598792 1.57437e-16)
(-0.0017084 0.000791871 1.38982e-16)
(-1.41547e-05 0.00229724 2.01867e-16)
(-0.00162089 0.000605883 1.45748e-16)
(-2.50827e-06 0.00229796 2.04813e-16)
(-1.31504e-05 0.00229671 -2.02605e-16)
(-1.48408e-05 0.00229691 -2.01907e-16)
(-0.00160019 0.000650781 0)
(-0.00161873 0.000608204 -4.98682e-17)
(-1.62343e-06 0.00229648 -7.98781e-19)
(1.35534e-05 0.00229736 0)
(-0.00159796 0.000648577 1.98688e-16)
(-0.00161146 0.000608248 0)
(2.07983e-06 0.00229635 -2.03401e-16)
(-1.11034e-05 0.00230434 3.1623e-18)
(0.00157185 0.000610749 -2.14735e-16)
(2.07425e-06 0.0022972 -4.10851e-16)
(-0.00173571 0.000684004 3.41575e-16)
(-8.44065e-07 0.00229706 0)
(-7.48129e-07 0.00229811 2.0276e-16)
(-4.43113e-07 0.00229732 0)
(-1.01613e-07 0.0022975 2.0282e-16)
(1.68201e-06 0.00229673 -2.02307e-16)
(0.00135164 0.000525454 1.21377e-16)
(6.15052e-07 0.00229632 2.02449e-16)
(1.06037e-06 0.00230136 -1.4657e-20)
(-2.6205e-08 0.00229703 2.04802e-16)
(-1.53929e-05 0.00229735 4.04647e-16)
(-0.00161943 0.000618694 0)
(-0.00161786 0.000623916 -5.25275e-17)
(-1.33881e-05 0.00229701 0)
(-3.05263e-07 0.00229715 0)
(-1.54825e-06 0.00229622 -2.06612e-16)
(1.35872e-05 0.00229806 2.03099e-16)
(1.1225e-05 0.0022982 2.03864e-16)
(-0.00161455 0.000628194 2.57696e-16)
(1.20934e-05 0.00229702 2.03295e-16)
(-8.83896e-07 0.00229792 -2.04793e-16)
(-2.2001e-06 0.00229722 0)
(-6.03239e-07 0.00229704 -1.47059e-20)
(-0.00161807 0.000623489 1.00376e-16)
(1.3444e-05 0.00229729 0)
(1.26848e-05 0.00229658 2.03437e-16)
(-5.39296e-06 0.00230151 -2.05257e-16)
(-0.00162385 0.000605689 0)
(-2.06521e-08 0.00229709 0)
(0.00158667 0.000610505 -2.13231e-16)
(-2.82145e-07 0.00229862 1.59879e-18)
(-2.23615e-07 0.00229913 -3.98538e-19)
(-1.10068e-05 0.00229515 -7.92067e-19)
(-1.48841e-05 0.0022967 1.46014e-20)
(-1.2014e-05 0.00229583 7.92715e-19)
(-0.00161249 0.000698591 -1.24095e-16)
(-1.43436e-05 0.00229565 2.03611e-16)
(7.67475e-06 0.00229641 0)
(-1.40561e-05 0.00229596 2.02163e-16)
(-1.42315e-05 0.0022964 -2.02508e-16)
(-1.5003e-05 0.00229734 -2.03449e-16)
(-0.0019516 0.00159631 -3.08462e-16)
(-0.000372069 0.000460473 -3.84298e-16)
(1.3847e-05 0.0022976 -2.03714e-16)
(-1.3791e-06 0.00229756 -2.03072e-16)
(1.6107e-07 0.00229808 -2.03026e-16)
(1.24365e-05 0.00229654 2.03498e-16)
(-0.00162615 0.000613421 -2.02474e-16)
(-1.59513e-05 0.00229619 2.0214e-16)
(-1.33351e-06 0.00229746 -2.02691e-16)
(-1.04917e-05 0.00230184 -4.03167e-16)
(-1.20491e-06 0.00229671 -1.6033e-18)
(1.47928e-05 0.00229662 2.02729e-16)
(0.00157436 0.000603909 2.13265e-16)
(-4.90621e-06 0.00229815 -2.02729e-16)
(9.02643e-07 0.00229703 -1.45898e-20)
(0.00167731 0.000692609 -2.63006e-16)
(-4.92562e-07 0.00229695 0)
(-1.0308e-06 0.00229702 0)
(-1.5866e-05 0.00229668 -4.06254e-16)
(-0.00161797 0.000620943 1.00717e-16)
(2.95703e-07 0.00229569 -4.00493e-19)
(-1.84059e-05 0.00229744 2.12278e-19)
(0.00158448 0.000588113 1.41756e-17)
(-1.6926e-05 0.0022985 2.03076e-16)
(1.67593e-05 0.00229753 2.03048e-16)
(1.53377e-05 0.00229716 -2.02901e-16)
(3.8487e-06 0.00229691 -2.03471e-16)
(-1.79896e-05 0.00229765 1.45945e-20)
(-0.00168178 0.000599599 -2.15475e-16)
(-0.00138421 0.000536871 2.65478e-16)
(-1.57301e-06 0.00229483 -1.46744e-20)
(-1.0032e-06 0.00229745 -2.0259e-16)
(-0.00160346 0.000651137 5.11237e-17)
(1.45816e-06 0.00229652 -1.47062e-20)
(-1.65907e-05 0.00229596 8.0515e-19)
(1.66639e-05 0.00229669 -4.06043e-16)
(7.64145e-06 0.00229454 2.03834e-16)
(1.4161e-05 0.00229626 -2.03832e-16)
(1.3925e-05 0.00229675 -2.03826e-16)
(1.66394e-05 0.00229699 2.03125e-16)
(1.38827e-05 0.00229637 1.98679e-19)
(1.65144e-05 0.00229705 0)
(0.00158665 0.000599932 0)
(-1.34553e-05 0.00229719 2.04488e-16)
(-1.08933e-06 0.00229959 0)
(3.01614e-06 0.00229868 2.03737e-16)
(1.65504e-05 0.00229698 0)
(1.64804e-05 0.00229717 2.03194e-16)
(1.66954e-05 0.00229681 -9.91913e-20)
(1.7426e-06 0.00229882 1.99364e-16)
(1.49995e-05 0.00229796 0)
(-4.33569e-06 0.00229931 0)
(-1.39816e-05 0.00229893 -2.04709e-16)
(-0.00161461 0.000623527 -2.47529e-21)
(1.47283e-05 0.00229691 0)
(-3.38798e-05 0.00233625 0)
(1.44719e-05 0.00229694 0)
(-0.00157725 0.00060179 1.5717e-16)
(1.14018e-06 0.00229769 -2.02842e-16)
(-1.04092e-05 0.00230192 2.04681e-16)
(1.51325e-05 0.00229826 -9.94049e-20)
(-0.00158383 0.000661159 5.56767e-17)
(-0.00160552 0.000652644 -5.0832e-17)
(1.3237e-05 0.00229786 -2.0382e-16)
(-3.98447e-06 0.00229341 0)
(-5.56034e-07 0.00230097 -2.03901e-16)
(1.34209e-05 0.00229801 1.46465e-20)
(1.66372e-05 0.00229671 -2.0366e-16)
(-1.57624e-06 0.00229171 4.05042e-16)
(0.00152771 0.000525957 -3.65596e-16)
(0.00158159 0.000611671 -4.3092e-16)
(-2.32329e-06 0.00229779 4.07251e-16)
(0.00156216 0.000616271 0)
(1.3103e-05 0.002298 0)
(1.69052e-05 0.00229635 -3.96998e-19)
(-0.00164429 0.000650695 -1.84023e-16)
(-0.00161179 0.000658959 1.05906e-16)
(1.03831e-06 0.00229614 -1.00204e-19)
(1.32316e-05 0.0022982 2.03872e-16)
(1.40468e-06 0.00229705 -2.0313e-16)
(-0.00147373 0.0014082 1.02777e-16)
(1.25284e-05 0.00229794 7.96848e-19)
(-1.62191e-05 0.00229837 2.03302e-16)
(-1.33529e-06 0.00230014 2.04072e-16)
(-0.00184026 0.000941882 -2.015e-16)
(1.29429e-05 0.00229866 0)
(-9.39281e-07 0.00229731 4.01575e-19)
(-3.52564e-06 0.00229944 -2.03105e-16)
(-0.00161891 0.000613818 0)
(0.00162798 0.000446454 3.85786e-16)
(-0.00159353 0.000661537 5.36681e-17)
(1.23809e-05 0.00229816 -7.96979e-19)
(1.73895e-06 0.0022978 -2.0383e-16)
(-1.44352e-05 0.0022957 -2.03657e-16)
(-0.00161156 0.000647144 3.04097e-16)
(1.24235e-05 0.00229894 -2.0409e-16)
(-1.89447e-05 0.00229656 7.93022e-19)
(9.94918e-07 0.00229609 2.00592e-19)
(1.54121e-05 0.00229662 0)
(-4.64959e-07 0.00230061 0)
(1.56193e-05 0.00229645 0)
(1.63193e-06 0.00229779 0)
(-0.00161418 0.000613503 -5.05808e-17)
(-1.70143e-05 0.00229574 0)
(-1.12517e-06 0.00229718 0)
(0.00170667 0.000795704 1.5751e-16)
(1.06512e-06 0.00229785 0)
(-9.27226e-05 0.00239191 0)
(-4.53231e-07 0.00230051 4.08011e-16)
(8.36729e-07 0.00229612 0)
(0.00157148 0.000578354 -4.81147e-17)
(0.00158159 0.000614123 0)
(0.00142481 0.000697884 1.05924e-16)
(0.00155172 0.000561209 -2.06199e-16)
(1.79704e-06 0.00229775 -4.07225e-16)
(-0.00146156 0.000632766 0)
(7.17908e-07 0.0022979 -1.99182e-19)
(-0.00160326 0.000648413 -9.91585e-17)
(1.73448e-05 0.00229676 0)
(0.000784249 0.000897011 0)
(2.85097e-07 0.00229725 -4.02033e-19)
(1.4041e-06 0.00230302 -1.26935e-17)
(0.000591183 0.00141289 -7.05268e-18)
(1.54118e-05 0.00229538 0)
(1.85026e-06 0.00229717 0)
(-0.00161055 0.000633594 0)
(-7.46057e-07 0.00229741 4.06411e-16)
(-6.61819e-07 0.00229798 0)
(0.00157804 0.000605487 3.89371e-21)
(0.000446949 0.00132507 0)
(-7.8945e-08 0.00229742 4.14446e-19)
(-1.92631e-07 0.00229856 -2.04146e-16)
(1.16936e-06 0.00229689 -2.03127e-16)
(9.79068e-07 0.00229625 -4.02707e-19)
(4.25216e-07 0.00229653 0)
(8.88319e-07 0.0022989 1.47223e-20)