/*--------------------------------*- C++ -*----------------------------------*\
  =========                 |
  \\      /  F ield         | OpenFOAM: The Open Source CFD Toolbox
   \\    /   O peration     | Website:  https://openfoam.org
    \\  /    A nd           | Version:  12
     \\/     M anipulation  |
\*---------------------------------------------------------------------------*/
FoamFile
{
    format      ascii;
    class       surfaceScalarField;
    location    "0.29";
    object      phi;
}
// * * * * * * * * * * * * * * * * * * * * * * * * * * * * * * * * * * * * * //

dimensions      [0 3 -1 0 0 0 0];

internalField   nonuniform List<scalar> 
6438
(
-4.67501e-08
5.88312e-06
-5.83637e-06
-5.03485e-08
6.83489e-06
-6.78454e-06
-6.41384e-06
-1.09506e-06
7.50889e-06
6.0827e-06
-6.68037e-06
5.97667e-07
9.34199e-06
-7.30053e-06
-2.04146e-06
2.10596e-06
7.23603e-06
-7.29693e-06
8.83091e-07
-6.31772e-06
6.26737e-06
6.83519e-06
-8.15482e-06
1.31962e-06
6.34143e-06
-7.44217e-06
1.10074e-06
-6.13231e-06
7.46946e-06
-1.33715e-06
1.47064e-06
-6.71648e-06
5.24584e-06
-7.60549e-06
1.47318e-06
5.82827e-06
2.67696e-06
-8.50523e-06
5.4795e-06
-5.52625e-06
-3.09951e-07
6.42049e-06
-6.11054e-06
-8.09006e-06
7.84781e-06
2.42248e-07
-6.12574e-06
7.44582e-06
-1.32008e-06
-7.60667e-06
1.48092e-06
2.41477e-06
5.09519e-06
-7.50996e-06
-1.75696e-06
-1.14636e-06
2.90332e-06
-3.72504e-07
6.72322e-06
-6.35071e-06
-6.24105e-06
-1.01073e-06
7.25178e-06
-7.64327e-06
3.34793e-06
4.29534e-06
-6.62219e-06
6.24969e-06
-5.88118e-06
7.14973e-06
-1.26855e-06
-7.20541e-06
9.6436e-07
6.81627e-06
-5.34563e-06
-6.19238e-06
-1.16772e-06
7.3601e-06
-7.49991e-06
1.61874e-06
5.72651e-06
-7.21432e-06
1.48781e-06
3.14251e-08
-7.01958e-06
6.98815e-06
6.87052e-06
-6.91588e-06
4.53594e-08
-6.80795e-06
1.14081e-06
5.66715e-06
-9.18987e-06
1.49088e-06
7.69899e-06
6.46448e-06
-6.43305e-06
6.52482e-06
-4.42114e-07
4.23263e-06
5.93138e-06
-1.0164e-05
-2.10906e-06
7.93733e-06
-6.06879e-06
6.67104e-06
-6.02244e-07
-7.03491e-06
6.97263e-06
6.22871e-08
-2.91606e-06
5.33083e-06
6.28729e-06
5.41421e-08
-7.56038e-06
7.40553e-06
1.54847e-07
6.76068e-06
-1.03417e-06
-5.10601e-06
4.79606e-06
-8.7922e-06
1.49167e-06
6.68695e-06
6.42492e-07
-7.32944e-06
-5.18284e-06
-1.62511e-06
-9.56324e-07
-6.25374e-06
7.0976e-06
-8.43859e-07
-4.63825e-06
6.70486e-06
-2.06661e-06
6.74422e-06
-6.74422e-06
2.12243e-06
5.11473e-06
6.72111e-07
-5.78684e-06
3.0012e-06
1.46537e-06
-4.46657e-06
5.70774e-06
1.21198e-06
-6.91971e-06
5.51566e-06
-2.16773e-06
-3.19708e-06
-5.59511e-06
-6.64672e-08
5.94656e-06
-5.8801e-06
-7.3323e-06
7.3323e-06
-7.59978e-06
7.68106e-06
-8.12802e-08
3.09124e-07
5.64324e-06
-5.95236e-06
2.10203e-08
-6.9181e-06
6.89708e-06
6.42086e-06
-6.39984e-06
-7.00168e-06
8.09307e-07
-7.018e-06
-5.42382e-07
-6.03695e-06
6.63979e-06
-6.02838e-07
6.68295e-07
5.78155e-06
-6.44984e-06
-7.10206e-06
6.82891e-06
2.73151e-07
6.92057e-06
-6.92057e-06
6.42727e-06
4.07927e-07
-4.2251e-06
-3.21707e-06
6.02937e-06
1.2716e-06
-7.30097e-06
-5.91197e-06
-1.12294e-06
5.25395e-06
4.05595e-06
-9.30991e-06
-8.13161e-06
5.21554e-06
-5.18175e-06
-2.94986e-06
7.17438e-06
-1.14501e-06
4.27064e-06
-1.26944e-06
5.80108e-06
6.68292e-07
-6.46937e-06
-7.15454e-06
-4.45242e-07
-1.00874e-06
-1.74494e-06
-5.58737e-06
7.75934e-06
-7.75934e-06
-5.12394e-06
-1.97812e-06
-4.6401e-07
-8.72586e-06
-6.6949e-06
6.668e-06
2.69058e-08
2.41387e-07
-6.77731e-06
6.53592e-06
-7.44454e-07
6.54553e-06
6.69905e-06
1.71471e-07
-6.99831e-06
-1.09175e-06
-7.071e-06
7.25323e-06
-1.82233e-07
7.36639e-06
-4.12392e-06
-3.24247e-06
6.61745e-06
-6.37606e-06
1.34007e-07
7.41256e-06
-3.77215e-06
-3.64041e-06
4.21988e-06
3.14651e-06
6.80949e-06
-6.80949e-06
-5.22259e-06
7.49437e-06
-2.27178e-06
-6.56572e-06
3.11976e-07
-8.96685e-07
-5.31981e-06
6.21649e-06
-6.15261e-06
2.40631e-07
-6.59563e-06
1.37305e-06
5.69292e-06
1.2611e-06
-6.95402e-06
-3.88064e-07
6.08098e-06
-5.94372e-06
6.86791e-06
-9.24189e-07
-6.31615e-06
2.47357e-07
4.34244e-06
3.07012e-06
6.57235e-06
-1.32651e-06
2.81994e-07
6.46223e-06
-5.67514e-06
-4.77462e-07
5.93506e-06
1.26355e-06
-7.19861e-06
-3.27934e-06
-2.8324e-06
6.11174e-06
4.31946e-06
-5.40545e-07
-3.77892e-06
-7.01958e-06
1.42244e-06
7.04282e-06
-8.46527e-06
-3.26312e-06
1.50616e-06
7.02479e-06
1.24942e-07
7.60516e-06
-3.9384e-06
-3.66676e-06
2.54766e-06
5.0575e-06
7.11253e-06
-1.17746e-06
8.67218e-06
-4.43955e-06
-6.42502e-06
1.48961e-08
6.41012e-06
-9.18834e-06
9.42819e-07
8.24552e-06
-1.05431e-07
-6.37659e-06
6.48202e-06
7.01578e-06
3.89751e-07
-5.40987e-06
5.3434e-06
-6.45624e-06
6.58623e-06
-1.29987e-07
6.53719e-06
-6.64262e-06
6.74366e-06
-6.74366e-06
6.64556e-06
1.89334e-07
6.6585e-06
-1.54377e-06
6.57034e-06
-6.26121e-06
-5.78557e-06
4.88889e-06
5.93555e-08
6.37441e-06
-6.43377e-06
7.48504e-06
-5.24673e-06
-2.23831e-06
-6.9181e-06
-9.90101e-08
7.7066e-08
-6.39479e-06
-6.41096e-06
3.74003e-07
7.4304e-08
6.39017e-06
6.18393e-06
-5.51564e-06
-6.37768e-06
4.33957e-07
6.47207e-06
-1.8478e-07
-2.30718e-07
5.63118e-06
-5.40047e-06
4.42484e-06
3.0602e-06
-6.63427e-06
1.42188e-06
5.21239e-06
6.75787e-06
-5.30122e-08
-8.94021e-06
8.17103e-07
8.12311e-06
-9.05832e-08
-6.34292e-06
6.4335e-06
4.21677e-06
1.02691e-07
4.01636e-07
6.35624e-06
6.29286e-06
5.23412e-07
6.49853e-06
-6.58911e-06
-6.77183e-06
-2.26484e-07
6.9061e-06
-7.41681e-06
5.10707e-07
-6.17738e-06
-2.47633e-07
-7.51701e-06
3.25948e-06
4.25753e-06
6.78665e-09
6.5002e-06
2.23021e-07
-6.11555e-06
7.11075e-06
-9.952e-07
-6.74908e-06
5.80914e-06
9.39943e-07
-9.11921e-07
2.35564e-06
-1.44372e-06
-2.11264e-06
-5.38727e-06
-6.77731e-06
-5.36506e-08
6.47451e-06
1.9807e-06
5.51366e-06
-1.08609e-07
-6.59165e-06
-3.05434e-08
-1.38755e-07
-7.20901e-06
6.09294e-06
1.11606e-06
-4.25446e-07
5.36873e-06
1.05854e-06
1.05372e-05
-4.60578e-06
-2.22976e-06
-5.37691e-06
6.61022e-06
8.88343e-08
-5.67782e-06
2.39848e-06
-2.54635e-06
-4.02338e-06
6.56973e-06
-2.27355e-06
-5.33194e-06
-3.70397e-06
8.95793e-06
-6.81225e-06
2.20602e-07
-6.43365e-06
6.45855e-06
-2.49036e-08
-5.32005e-06
5.08933e-06
-7.76936e-08
-6.30536e-06
6.38305e-06
-6.93011e-06
1.17862e-07
5.78264e-06
-6.88011e-06
1.09748e-06
6.44194e-06
-6.51964e-06
5.75733e-06
-2.18061e-06
-3.57672e-06
-8.70503e-06
3.0824e-06
5.62263e-06
5.90521e-06
5.6686e-07
4.87826e-06
2.96956e-06
1.42723e-06
6.33212e-06
-1.69039e-06
-6.06896e-06
-7.0103e-06
6.94952e-06
6.07855e-08
-6.99197e-06
-1.8336e-08
-6.95518e-06
-3.67916e-08
1.94068e-08
1.80752e-06
-1.01331e-05
8.32561e-06
-7.52998e-06
8.95242e-06
5.94627e-06
-5.88692e-06
6.35202e-06
2.65431e-07
5.18804e-07
5.23853e-06
-6.37659e-06
-5.78178e-06
5.75343e-06
7.19178e-07
-6.47261e-06
-3.36488e-08
-1.37091e-06
1.01203e-05
-8.74934e-06
9.60102e-06
-6.92406e-06
-2.91007e-06
4.37544e-06
-1.84502e-06
-5.67199e-06
-5.04153e-06
-3.6635e-06
-6.37567e-06
-3.96157e-07
-6.41971e-06
6.41882e-06
8.91281e-10
-1.01623e-06
6.02957e-06
-5.01334e-06
-6.88761e-06
6.93611e-06
-4.84972e-08
-6.81583e-06
-7.1778e-08
-8.76459e-06
5.4468e-07
8.21991e-06
-6.12839e-06
-3.97562e-07
6.52595e-06
6.86148e-06
7.46316e-08
-1.22013e-06
-7.49913e-06
2.72947e-06
4.76966e-06
4.39543e-08
-3.97285e-06
-3.52628e-06
-9.36974e-08
-7.02307e-08
-6.27039e-06
6.34062e-06
-6.45001e-06
3.21615e-07
5.82879e-06
7.81423e-07
6.71768e-06
-6.43568e-06
6.3821e-06
-6.45233e-06
6.35358e-06
1.83606e-07
3.12143e-06
6.47959e-06
6.64012e-06
-1.27139e-06
-5.20602e-07
-8.66774e-06
-3.8109e-07
5.23831e-06
-4.85722e-06
-6.78347e-06
-3.23626e-08
-6.78256e-06
-9.12758e-10
6.83774e-06
-6.78896e-06
-4.87754e-08
6.76245e-06
7.52885e-08
-6.34292e-06
1.56497e-06
-2.14996e-06
5.84989e-07
-7.65694e-06
4.4778e-06
3.17914e-06
3.43379e-06
-6.88202e-06
3.44822e-06
-6.00679e-06
-5.58923e-07
-6.39835e-06
6.3666e-06
3.17445e-08
-6.65847e-06
6.42068e-06
2.37791e-07
-5.31377e-07
6.8137e-06
-6.28232e-06
-6.61107e-06
1.61065e-07
-7.34007e-06
9.14759e-06
-6.83818e-07
-5.95045e-06
-6.90035e-06
6.36897e-06
-5.40792e-06
-4.98156e-07
5.90607e-06
-5.07241e-06
6.71859e-06
4.38603e-08
-4.60619e-06
-1.23167e-06
1.3658e-06
-1.34133e-07
-6.39678e-08
2.46317e-07
-8.75625e-06
8.50993e-06
-4.91073e-06
-2.3862e-06
-6.81673e-06
6.6761e-06
1.40634e-07
-6.71181e-06
-1.04919e-07
-2.41546e-06
1.50354e-06
6.34226e-06
1.56263e-07
6.77519e-06
-1.13195e-06
6.70471e-06
-6.69646e-06
-8.24836e-09
-1.82143e-08
-6.22264e-06
6.24086e-06
7.01634e-06
-5.03564e-06
-8.42581e-08
6.96783e-06
3.92782e-06
-1.08956e-05
6.90462e-06
-6.90462e-06
1.06502e-06
6.26729e-06
-2.4361e-06
-4.30812e-06
-5.50147e-06
6.62941e-06
-1.12794e-06
-7.36684e-07
-5.92179e-06
6.35007e-06
-6.36828e-06
-6.07958e-06
1.04672e-07
5.97491e-06
1.16732e-06
-6.16282e-06
4.99549e-06
-6.38032e-06
6.31491e-06
6.5411e-08
4.07492e-06
2.94143e-06
-1.99079e-07
-1.03259e-06
-3.82796e-06
-3.82898e-06
-1.46241e-06
-6.81037e-06
6.94812e-07
-6.30536e-06
5.71323e-06
1.19287e-06
-5.31084e-06
-5.9605e-06
5.52581e-07
-6.0825e-06
3.53615e-06
6.90079e-06
-5.61062e-06
-1.29017e-06
1.1796e-06
5.53808e-06
-4.88972e-06
-2.31569e-06
-6.75199e-06
6.75199e-06
6.75179e-06
-6.49191e-06
-2.59882e-07
3.89467e-07
-6.39626e-06
-5.40148e-06
6.10571e-06
-7.04232e-07
-2.14151e-06
9.95151e-07
6.29126e-06
-6.32188e-06
3.0622e-08
6.60447e-06
7.16274e-08
6.67544e-06
7.63561e-08
1.00893e-05
-6.43799e-06
-1.73085e-07
-5.64819e-06
4.63197e-06
6.33405e-06
1.07896e-07
6.65485e-06
-6.61657e-06
-3.82795e-08
-5.69662e-08
-9.19876e-08
6.94786e-07
-5.70612e-06
5.01133e-06
-2.01079e-07
-8.73913e-06
2.09003e-06
4.72651e-07
-5.87413e-06
-6.36736e-06
6.27033e-06
9.70314e-08
6.35392e-06
-5.71284e-07
-2.96839e-06
-3.94749e-06
-8.90089e-06
6.59835e-07
-3.56991e-06
-1.05693e-06
2.61289e-08
6.54599e-06
-5.82681e-06
-6.27039e-06
-6.28082e-06
1.63474e-07
6.11735e-06
8.86729e-06
1.25297e-06
5.10941e-06
2.57165e-06
6.18398e-06
-2.75019e-06
6.45944e-06
-3.66491e-07
1.48096e-05
-1.08818e-05
-1.01331e-05
-3.24728e-06
-3.5018e-06
-8.16309e-08
6.88465e-06
-6.44999e-06
-4.34661e-07
6.52456e-06
1.50881e-07
7.55131e-07
-6.2566e-06
-4.64189e-06
5.33668e-06
6.32725e-06
5.48553e-08
4.97036e-06
2.20402e-06
6.63762e-06
2.47026e-07
6.63123e-06
-6.53612e-06
-9.51127e-08
-2.98436e-06
-4.22996e-06
-2.98464e-07
6.1076e-06
1.13715e-07
-7.03428e-06
5.49877e-06
-4.33145e-06
-9.20104e-08
1.39323e-07
5.36131e-06
-5.82373e-06
4.62413e-07
9.79683e-07
5.64973e-06
9.00021e-06
-8.75389e-06
3.13197e-06
3.96563e-06
-6.35117e-06
6.27647e-06
7.47024e-08
-1.4673e-07
-3.69009e-06
2.01888e-06
1.67121e-06
-6.6126e-08
6.90028e-06
-6.90028e-06
7.78963e-06
-4.51564e-06
-3.27399e-06
-5.72188e-06
-9.5849e-07
4.82366e-06
2.28887e-06
6.59956e-06
3.80626e-08
-6.22264e-06
6.17398e-06
3.91534e-08
-6.21313e-06
5.05576e-06
7.03428e-06
-6.98815e-06
1.78668e-07
8.21524e-06
-7.27242e-06
6.36224e-06
-6.77968e-06
6.31671e-06
-1.42732e-07
5.70213e-06
-6.16992e-06
6.13738e-06
3.25409e-08
2.89079e-07
4.94941e-06
-5.23849e-06
-5.61595e-06
4.63767e-06
-4.209e-07
5.87447e-06
7.96563e-07
-5.60858e-08
-5.42927e-06
-9.48409e-07
-8.12798e-06
5.14362e-06
8.52288e-09
-6.18591e-06
-6.58793e-06
-3.1242e-07
8.82526e-06
-4.76931e-06
6.34391e-08
-1.14153e-06
7.01681e-06
-5.87528e-06
-2.9977e-06
-6.9239e-07
6.14588e-06
-6.21255e-06
6.66699e-08
-6.36224e-06
6.30675e-06
2.73524e-06
3.90918e-06
-6.64442e-06
6.61382e-06
-1.2525e-06
5.49858e-07
5.87064e-06
6.48649e-06
6.24263e-07
7.07407e-07
8.57566e-07
-6.89708e-06
1.5342e-07
-5.47647e-06
6.2316e-06
-3.17158e-06
3.83141e-06
5.86037e-07
-5.75423e-06
5.16819e-06
-4.62719e-08
1.22835e-07
-5.74121e-06
-6.52744e-06
6.40807e-06
1.19372e-07
-6.26257e-06
6.51946e-07
4.08478e-06
3.70485e-06
-3.52392e-06
7.22687e-06
-3.70295e-06
7.24144e-06
-6.76055e-06
-4.80896e-07
1.79419e-07
4.45825e-06
-6.21437e-06
-6.64486e-08
6.30741e-06
9.29884e-09
3.11944e-06
-1.10056e-06
8.0292e-06
-7.21209e-06
5.75908e-06
8.80714e-07
3.63712e-07
-6.40445e-06
9.75184e-07
9.86318e-08
-5.5751e-06
7.15217e-06
-5.77912e-06
5.8311e-06
-3.54982e-07
-5.55045e-06
5.90543e-06
-6.27687e-06
6.53625e-06
-7.76995e-08
-9.50885e-06
7.59513e-07
-4.0113e-08
6.15708e-06
1.19387e-07
-5.8151e-06
-6.38033e-06
6.35335e-06
2.69761e-08
7.63218e-06
-4.43109e-06
-3.20109e-06
-5.35472e-06
-4.81858e-07
5.83658e-06
-1.44647e-08
-6.31104e-06
1.35693e-07
-6.81892e-07
6.73946e-06
-6.05757e-06
-6.17872e-06
6.20934e-06
-8.96567e-06
-1.30926e-06
-8.67343e-06
8.45625e-06
2.17185e-07
4.95128e-06
2.51817e-06
5.79631e-06
5.19445e-07
-6.31575e-06
6.15877e-06
-2.53562e-07
4.9662e-06
2.47962e-06
-4.39499e-06
1.39729e-06
-6.22357e-06
5.40718e-06
-6.15163e-06
-8.3558e-06
8.32544e-06
3.036e-08
7.5501e-06
-6.05922e-06
6.1558e-06
-1.84153e-08
3.78395e-07
-5.74087e-06
5.36248e-06
-9.28202e-08
-8.26298e-06
7.46068e-06
-7.46068e-06
-3.39411e-06
6.40047e-06
-3.00636e-06
-6.16149e-06
6.16149e-06
6.29924e-06
-5.56906e-06
-7.3018e-07
5.86089e-06
1.39235e-06
6.56542e-06
-5.38582e-06
6.49179e-06
-7.29737e-08
-5.08256e-06
-8.14408e-07
5.89696e-06
-8.25388e-06
8.28179e-06
-2.7905e-08
7.6105e-06
-4.58103e-06
-3.02947e-06
1.11286e-06
5.45256e-06
-8.34029e-06
8.29856e-06
4.17281e-08
-1.25894e-09
-6.06674e-08
8.23037e-06
-8.1697e-06
-8.30839e-06
8.30839e-06
-9.90025e-08
6.24489e-06
8.91527e-06
-8.31125e-06
-6.04021e-07
-8.34544e-06
8.28477e-06
8.33835e-06
-8.29577e-06
-4.25798e-08
-6.07572e-06
-1.3683e-07
7.10613e-06
-9.47251e-08
8.28279e-06
-8.18806e-06
8.2854e-06
-8.30097e-06
1.55702e-08
-6.26201e-06
8.24239e-06
-1.20238e-08
-6.3726e-06
6.31558e-06
5.7026e-08
-8.24079e-06
8.2704e-06
-2.96116e-08
6.31214e-06
-6.14866e-06
-8.32339e-06
8.22867e-06
6.38317e-06
-2.02836e-06
3.03973e-06
3.97708e-06
-4.61541e-06
-3.51257e-06
-8.29444e-06
8.29444e-06
-8.33248e-06
-1.29592e-08
7.71381e-06
-1.41402e-06
-6.29979e-06
-5.43889e-06
3.69395e-06
2.07974e-07
8.25561e-06
-8.28112e-06
2.55137e-08
6.07691e-06
-6.07046e-06
-6.4471e-09
8.51282e-06
-8.29181e-06
-2.21005e-07
8.21281e-06
4.28023e-08
8.1977e-06
8.50901e-08
-1.68184e-08
-6.14467e-06
-7.60312e-06
4.18467e-06
3.41846e-06
-6.13599e-06
6.17514e-06
8.23876e-06
-2.59498e-08
8.6549e-07
5.59394e-06
4.43016e-06
-1.69492e-06
-8.31133e-06
-1.20588e-08
6.77879e-06
4.0229e-06
-6.8553e-06
-1.04366e-06
-8.46519e-06
6.18322e-06
-6.21866e-06
3.54386e-08
-2.86526e-07
-8.38691e-06
6.43866e-06
-7.20602e-08
7.15966e-06
-4.89912e-06
-2.26055e-06
-6.19672e-06
8.25126e-06
-8.25126e-06
5.90209e-06
7.48067e-08
-5.97689e-06
6.35424e-06
-8.26861e-06
8.25779e-06
1.08189e-08
8.21027e-06
-8.28927e-06
7.90032e-08
5.22777e-06
-6.91816e-06
-2.20182e-08
-8.21039e-06
8.23241e-06
8.19148e-06
-8.2135e-06
-2.74436e-07
8.73068e-06
-6.56126e-06
7.10594e-06
-7.42068e-06
5.14714e-06
-1.3049e-07
8.45593e-06
7.11243e-07
3.6642e-06
6.75529e-08
7.64625e-06
-2.1931e-08
6.61838e-06
-6.59645e-06
-5.61866e-08
-8.28849e-06
-5.1803e-08
6.80234e-06
-6.80167e-07
-6.12218e-06
-8.23328e-06
8.23328e-06
4.83634e-06
-4.16422e-06
-8.30155e-06
8.27984e-06
2.17135e-08
6.33971e-06
-6.33971e-06
6.17321e-06
-9.63036e-08
8.24456e-06
-8.2578e-06
1.32386e-08
-7.95724e-06
2.17546e-06
8.40066e-09
-6.12414e-06
6.11573e-06
6.64176e-06
-5.55294e-08
8.26201e-06
7.63434e-08
5.01163e-06
8.55673e-07
-5.8673e-06
8.28716e-06
-4.4767e-08
6.43699e-06
-6.43699e-06
8.23444e-06
-8.20585e-06
-2.85936e-08
-6.29606e-06
6.25004e-06
4.60186e-08
8.29746e-06
-8.27227e-06
-2.51925e-08
-8.24689e-06
8.24689e-06
1.22572e-06
5.77341e-06
1.94511e-07
-5.96792e-06
-8.30223e-06
8.28065e-06
2.15744e-08
-3.0516e-08
-6.21634e-06
6.18101e-06
2.21542e-09
7.71681e-06
-1.45999e-06
-6.25682e-06
5.33105e-06
8.21355e-06
-8.23619e-06
2.26363e-08
6.34732e-06
6.78171e-06
9.56055e-08
5.80648e-06
8.42219e-06
-1.60187e-07
8.18665e-06
2.68966e-08
6.0237e-06
-6.0237e-06
-3.17158e-06
8.32937e-06
-8.264e-06
-2.52771e-08
8.25966e-06
-8.22854e-06
-3.11207e-08
1.61365e-07
-8.41644e-06
8.25507e-06
8.64929e-07
-8.32561e-06
-8.2872e-06
8.27295e-06
1.42547e-08
5.98276e-06
-5.97994e-06
-2.82408e-09
6.29924e-06
-5.55974e-06
5.55974e-06
8.20323e-06
-1.65735e-08
-6.15111e-06
-5.74087e-06
5.79631e-06
6.3813e-06
-6.63886e-08
-1.86378e-08
6.53516e-07
-8.14703e-06
8.25834e-06
-8.26092e-06
2.5829e-09
1.97933e-07
5.78483e-06
1.90529e-07
6.61182e-06
6.22222e-06
-4.9009e-08
-8.26865e-06
8.25912e-06
9.53332e-09
8.1958e-06
-8.21858e-06
2.27823e-08
-8.26133e-06
-4.02278e-08
8.23884e-06
-8.21722e-06
-2.16172e-08
6.22063e-06
1.19081e-07
8.24405e-06
3.57915e-08
-1.03177e-08
8.22549e-06
3.3631e-08
-1.26088e-09
-6.09239e-06
-8.35088e-06
8.78955e-08
-6.18045e-06
6.18045e-06
7.55904e-08
7.64122e-06
-6.28007e-06
1.19751e-06
4.31366e-08
8.24226e-06
3.42451e-07
-5.93666e-06
5.59421e-06
5.7089e-08
8.25131e-06
7.87161e-06
-8.58569e-06
6.21444e-06
2.22549e-07
8.19148e-06
-6.37608e-08
5.83717e-06
-6.01055e-06
3.06107e-08
5.92115e-06
-9.09516e-07
-8.21194e-06
8.21194e-06
-8.25598e-06
-4.62431e-08
5.56906e-06
-5.77341e-06
2.04349e-07
-8.25131e-06
6.08201e-06
-6.07361e-06
8.23999e-06
4.06623e-08
-8.24388e-06
-7.33113e-06
5.10137e-06
-8.27898e-06
8.26524e-06
1.37445e-08
5.63036e-06
5.28411e-07
6.12414e-06
3.73529e-08
-8.18547e-06
8.24149e-06
-5.60182e-08
-6.2167e-06
6.16131e-06
5.53875e-08
-8.21168e-06
2.62052e-08
6.19418e-06
-1.3173e-08
3.44447e-07
-6.40363e-06
6.05918e-06
8.20971e-06
-8.246e-06
3.62959e-08
6.67842e-06
-6.99083e-06
8.20881e-06
-8.20791e-06
-8.9335e-10
-5.24759e-06
5.24759e-06
-6.46018e-06
6.46018e-06
-8.19941e-06
-1.22722e-08
-3.83141e-06
4.54266e-06
-8.2228e-06
8.21071e-06
1.20878e-08
6.40019e-08
8.23044e-06
5.12869e-06
-4.54266e-06
-5.12869e-06
5.41777e-06
5.44488e-06
-6.25929e-06
7.50202e-06
-4.44639e-06
-3.05563e-06
-8.25225e-06
-3.49465e-08
-1.19131e-06
-5.41777e-06
6.60908e-06
8.24194e-06
3.10075e-08
-6.2441e-06
5.78733e-06
8.26556e-06
-8.24888e-06
-1.66841e-08
-8.21712e-06
-6.18816e-06
6.21527e-06
-1.91576e-07
-2.19804e-08
8.26074e-06
8.22629e-06
-6.11573e-06
-8.4223e-06
-4.94044e-06
6.31575e-06
-1.37531e-06
-8.18086e-06
-2.95325e-08
8.2155e-06
9.9893e-09
4.79161e-06
-4.89409e-06
1.02479e-07
9.40038e-09
5.77341e-06
-6.0048e-06
2.31393e-07
3.78001e-06
3.85217e-06
-8.24855e-06
-3.04297e-08
-6.24646e-06
8.17938e-06
-8.17257e-06
-6.81002e-09
8.23872e-06
2.65164e-08
-8.26252e-06
8.25363e-06
8.88866e-09
6.31545e-06
6.22063e-06
-8.20034e-06
8.18245e-06
1.78869e-08
8.25822e-06
-8.25462e-06
-3.60446e-09
-6.14111e-06
6.21444e-06
8.19644e-06
-8.19644e-06
3.25767e-08
8.26599e-06
-5.17539e-06
-1.10468e-06
8.21371e-06
-3.99827e-09
-1.05708e-06
5.61155e-06
-4.55447e-06
8.19262e-06
-8.18553e-06
-7.09427e-09
2.50435e-08
8.22622e-06
8.17776e-06
-8.185e-06
7.2387e-09
-8.27324e-06
-8.24356e-06
-4.96346e-06
7.06581e-09
8.25072e-06
-8.62556e-09
-8.22108e-06
8.22971e-06
-8.19702e-06
8.17917e-06
1.78551e-08
-8.24821e-06
-1.43103e-08
-6.24421e-06
-6.03016e-06
1.96066e-08
8.23984e-06
1.37992e-08
-8.18961e-06
8.18615e-06
3.45719e-09
-8.19524e-06
3.07566e-08
8.16449e-06
8.24574e-06
1.98288e-08
-8.22023e-06
-2.86488e-08
-5.99575e-06
-2.79443e-08
8.24169e-06
-8.24678e-06
5.09283e-09
8.19262e-06
-8.20125e-06
-8.20965e-06
8.19833e-06
1.13176e-08
8.18921e-06
-8.18257e-06
-6.63712e-09
6.17496e-06
5.49645e-09
8.24443e-06
1.37906e-08
-8.23296e-06
-2.16522e-08
-8.26319e-06
6.21527e-06
-8.19359e-06
8.17729e-06
1.63052e-08
5.43825e-06
-5.79323e-06
-8.17048e-06
8.20109e-06
-3.06078e-08
8.19577e-06
-8.20798e-06
1.22138e-08
-1.99492e-08
-8.24026e-06
-7.95656e-09
-2.13368e-08
-7.27358e-06
5.16094e-06
-1.40434e-08
8.19262e-06
-1.35354e-08
-8.71462e-09
-8.24722e-06
6.96163e-09
3.1527e-06
6.93042e-06
-1.00831e-05
-1.70806e-06
8.24176e-06
-7.84611e-11
-8.22622e-06
1.51398e-08
8.21814e-06
-8.23128e-06
-1.5499e-08
-6.19554e-06
-8.25543e-06
8.21067e-09
2.87412e-08
8.21582e-06
-1.32639e-09
3.89415e-08
-8.11569e-06
8.07674e-06
8.25312e-06
-8.24889e-06
-4.22556e-09
-6.30603e-06
1.13064e-06
8.23722e-06
-8.22278e-06
-1.44402e-08
-8.24266e-06
-6.11147e-06
-3.22301e-07
8.18747e-06
-8.18101e-06
-6.46095e-09
4.29437e-08
-8.12341e-06
8.08047e-06
-8.25106e-06
8.23567e-06
1.53861e-08
-6.23871e-06
6.18739e-06
5.13226e-08
7.28098e-09
-8.251e-06
-4.4249e-09
-6.27261e-06
1.30092e-06
4.97168e-06
-8.2402e-06
-1.08576e-08
8.25042e-06
2.70116e-09
-8.23689e-06
-1.20053e-08
-3.27403e-08
-8.25151e-06
5.0453e-10
-5.93327e-06
-6.94324e-07
6.6276e-06
4.73932e-06
3.46385e-08
-8.21814e-06
6.1886e-06
-2.72924e-08
-8.18701e-06
8.18701e-06
-1.58339e-08
8.24645e-06
3.9694e-09
-6.52504e-09
1.27719e-08
1.31504e-08
8.24957e-06
-3.1245e-09
4.87826e-09
8.24744e-06
-8.2475e-06
5.95556e-11
5.95331e-06
-5.95331e-06
-8.23042e-06
8.21273e-06
1.7685e-08
8.2007e-06
-8.19227e-06
-8.42732e-09
-1.15645e-08
8.2444e-06
5.16692e-09
8.24481e-06
2.62567e-09
-3.09445e-09
8.24566e-06
8.23757e-06
-8.24214e-06
4.56808e-09
-8.31704e-06
-8.21124e-06
-1.91746e-08
6.34819e-06
-7.78645e-08
8.23017e-06
7.40357e-09
6.90219e-08
8.23645e-06
-8.22741e-06
-9.04353e-09
-5.88384e-06
5.88384e-06
4.6004e-08
8.20088e-06
-8.18573e-06
8.19886e-06
-1.31241e-08
8.23469e-06
1.75568e-09
6.64196e-08
6.1558e-06
8.22494e-06
-8.22187e-06
-3.07547e-09
-8.16013e-06
-2.56047e-08
8.20161e-06
-8.20832e-06
6.7104e-09
8.21963e-06
5.31301e-09
8.23484e-06
9.97689e-09
-8.16019e-08
-8.13948e-06
-1.40472e-08
-7.2513e-07
-5.53147e-06
8.18881e-06
-8.19675e-06
7.93803e-09
2.46863e-07
5.70645e-06
8.22389e-06
-8.21619e-06
-7.703e-09
-7.3025e-09
-1.40015e-07
-6.84505e-06
6.98506e-06
-5.957e-06
6.0246e-06
-6.75955e-08
-8.15044e-06
8.15305e-06
-2.60358e-09
8.21444e-06
9.44602e-09
-8.19018e-06
-5.12123e-06
8.27393e-06
8.21764e-06
-8.20595e-06
-1.16843e-08
-8.2256e-06
8.22582e-06
-2.20721e-10
8.2019e-06
-8.19445e-06
-7.44453e-09
-7.96784e-07
-7.03486e-06
7.83165e-06
8.20922e-06
8.41419e-09
-8.15665e-06
6.20753e-09
8.21882e-06
-8.20828e-06
-1.05404e-08
6.17496e-06
-6.32364e-06
6.32364e-06
8.21577e-06
-8.2003e-06
-1.5475e-08
-1.58355e-08
8.21906e-06
-1.28718e-08
-6.18385e-06
8.20421e-06
1.15636e-08
-8.22486e-06
-1.53392e-08
-8.14418e-06
8.14849e-06
-4.30669e-09
8.22567e-06
4.49731e-09
1.38691e-07
8.1431e-06
-1.73636e-09
8.21801e-06
2.08332e-08
6.15552e-06
3.30825e-08
9.60044e-10
-8.15219e-06
8.00882e-09
6.27991e-07
2.27622e-08
2.65494e-07
8.19421e-06
-8.20189e-06
7.68677e-09
-8.13554e-06
8.14499e-06
-9.44299e-09
1.45114e-07
-6.16405e-06
6.01894e-06
1.10176e-06
-6.42073e-06
5.31897e-06
2.35446e-06
5.81954e-06
-5.81954e-06
8.18856e-06
-8.18856e-06
-6.74596e-06
3.77592e-09
-8.20412e-06
6.28442e-06
8.21623e-06
1.84661e-08
-1.55086e-06
-2.88138e-06
4.43224e-06
-8.14738e-06
1.18332e-08
-8.15211e-06
-2.64329e-07
3.48378e-06
-5.7492e-06
2.26541e-06
-5.63829e-09
5.55638e-08
8.14552e-06
2.37539e-08
6.17043e-06
-8.22778e-06
1.72921e-08
8.19465e-06
5.22736e-06
-6.37817e-06
1.15081e-06
5.32063e-06
-1.83685e-06
-1.02222e-08
-8.1868e-06
8.22898e-06
-8.17341e-06
-8.20551e-06
-8.1248e-06
8.11708e-06
7.71461e-09
1.7924e-09
8.20892e-06
8.18008e-06
8.48629e-09
7.47453e-06
-4.95964e-06
-2.51489e-06
-2.96644e-08
6.2441e-06
8.20672e-06
1.29043e-08
7.47173e-06
-8.26851e-06
5.53612e-08
8.14533e-06
-9.66471e-09
-8.18393e-06
-8.13425e-06
9.45505e-09
-5.97632e-06
1.9321e-08
6.27824e-06
-5.03339e-06
-1.24485e-06
8.16554e-06
-8.16626e-06
7.17851e-10
-9.46402e-09
2.35564e-06
-3.31166e-06
-3.10356e-06
6.41522e-06
8.18069e-06
-8.19329e-06
1.26032e-08
6.52199e-06
-6.44718e-06
-2.35849e-08
6.24421e-06
-5.36255e-06
3.81169e-06
8.17247e-06
-8.18069e-06
8.22433e-09
8.2194e-06
-8.16404e-06
-6.15708e-06
2.03761e-07
-6.18052e-06
6.17326e-06
7.2662e-09
6.0048e-06
-6.14481e-06
1.29972e-07
8.14043e-06
-6.23337e-06
6.04887e-06
-2.20078e-07
8.20677e-06
-8.19682e-06
-9.95447e-09
6.39067e-06
-6.10604e-06
-2.84633e-07
8.18008e-06
-4.93197e-09
-8.18467e-06
-6.05044e-06
2.028e-08
7.58147e-07
4.64749e-06
-5.40564e-06
-8.11443e-06
8.10562e-06
8.8014e-09
8.16727e-06
2.85039e-08
-5.1732e-06
-1.08609e-06
5.93005e-08
8.1426e-06
8.1933e-06
-8.21237e-06
1.90678e-08
8.18316e-06
-1.51314e-08
-8.15744e-06
-6.40205e-06
-1.07866e-06
8.19742e-06
1.70201e-08
8.71368e-06
-1.78326e-06
-4.94513e-08
8.18918e-06
-8.13973e-06
8.18571e-06
7.59819e-09
-8.12593e-06
1.15037e-08
-8.14973e-06
-5.81813e-08
-1.56701e-08
8.07986e-06
-8.06419e-06
1.06133e-08
8.18583e-06
8.22047e-06
-8.16117e-06
-8.19465e-06
-3.11845e-08
6.24646e-06
-8.52895e-09
6.19634e-06
-3.21384e-07
-5.87496e-06
8.30336e-08
6.11331e-06
-8.09137e-06
8.0757e-06
-8.19352e-06
-1.77268e-08
5.20132e-06
1.07692e-06
-3.11334e-08
6.33814e-06
-6.30701e-06
-5.24867e-06
-4.39249e-06
5.15064e-06
-6.84894e-06
8.45672e-07
6.00327e-06
8.1824e-06
6.22704e-09
-8.19176e-06
8.11317e-08
8.14784e-06
8.17008e-06
-8.17128e-06
1.19883e-09
8.18795e-06
-8.1636e-06
-2.4355e-08
-8.19903e-06
5.34089e-09
-1.18868e-08
-6.18633e-06
6.19822e-06
1.17705e-09
8.19715e-06
-5.6877e-06
1.66432e-06
-8.18823e-06
8.18369e-06
4.54323e-09
-8.10303e-06
8.09338e-06
9.64834e-09
7.86719e-08
6.70117e-06
-6.50666e-06
4.9087e-06
-1.17088e-07
-4.23557e-08
8.19376e-06
-8.15141e-06
-7.30746e-06
3.9958e-06
8.17955e-06
7.24371e-09
-8.18982e-06
8.18808e-06
2.1148e-08
-7.65411e-06
7.72691e-08
7.57684e-06
1.27666e-08
-8.11579e-06
8.17186e-06
-8.16327e-06
-8.59647e-09
-2.57944e-07
8.22046e-06
-7.96252e-06
-1.22212e-08
-1.67882e-06
7.6922e-06
-6.01339e-06
-6.15708e-06
-6.8369e-06
8.17701e-06
-4.54021e-09
7.16093e-08
8.14779e-06
7.97106e-06
8.25398e-06
-8.24762e-06
-6.35738e-09
-9.98859e-10
-6.19522e-06
6.19622e-06
-8.18168e-06
8.17614e-06
5.5433e-09
1.6531e-07
-6.16106e-06
5.99575e-06
8.19251e-06
-8.18907e-06
-3.43881e-09
-6.34378e-06
6.31264e-06
8.1684e-06
-8.16212e-06
-6.2805e-09
2.2894e-08
8.16506e-06
-8.75294e-08
8.21194e-06
-8.18699e-06
8.78008e-08
-6.04016e-06
8.18648e-06
-8.1851e-06
-1.37761e-09
8.18254e-06
4.78224e-09
-8.18579e-06
8.14068e-06
1.73198e-08
-8.15799e-06
1.94848e-09
8.18756e-06
-8.16466e-06
-1.9389e-08
-6.20017e-06
6.21956e-06
4.39526e-06
-6.4687e-06
2.07343e-06
-1.38129e-06
-6.27282e-06
-6.00656e-06
-1.35393e-06
-5.27641e-06
-8.1775e-06
4.7016e-08
8.13048e-06
-6.23809e-06
6.20017e-06
3.79238e-08
-1.89778e-06
-5.02038e-06
-8.17336e-06
7.29728e-06
-8.15644e-06
8.17076e-06
-1.43206e-08
-6.81727e-06
6.78271e-07
6.139e-06
6.50419e-06
-4.99849e-06
-1.50571e-06
-8.18492e-06
1.63543e-08
8.16856e-06
6.20925e-06
-6.13219e-06
1.70728e-08
8.15479e-06
-8.18583e-06
8.29251e-09
8.17871e-06
8.17764e-06
2.6568e-08
-1.34754e-09
-8.18365e-06
-2.63318e-08
-8.1619e-06
-8.16461e-06
6.20197e-06
-6.1247e-06
-3.47306e-08
1.74743e-06
5.41223e-06
-5.60683e-06
5.60683e-06
7.0859e-08
8.14961e-06
-9.27685e-06
-7.54858e-06
7.54758e-06
8.18868e-06
6.19737e-06
-6.15336e-06
-8.17599e-06
8.14966e-06
-6.91007e-06
7.07538e-06
8.17036e-06
-8.16323e-06
-7.13389e-09
9.84657e-09
8.17896e-06
-8.27453e-06
6.22711e-06
-6.2465e-06
-8.17377e-06
1.36386e-08
3.07707e-06
8.19379e-06
-8.18382e-06
-9.96339e-09
-8.18845e-06
8.17074e-06
-8.16393e-06
-6.81436e-09
-8.16934e-06
-8.15879e-09
8.15216e-06
-8.12719e-06
-6.24985e-06
7.5134e-06
8.16371e-06
-8.161e-06
-2.70711e-09
-1.43852e-08
8.15506e-06
-6.23809e-06
5.40561e-06
-5.85919e-06
4.53586e-07
-1.00518e-05
1.00518e-05
8.1848e-06
8.18641e-06
-2.07189e-08
1.3648e-08
-8.18427e-06
8.21247e-06
-2.82007e-08
8.16828e-06
-8.16146e-06
-6.82058e-09
-6.77879e-06
6.45649e-06
2.509e-08
8.16409e-06
-8.18485e-06
2.20473e-08
8.1628e-06
-8.16097e-06
8.17859e-06
-8.16761e-06
-6.26757e-06
-8.17806e-06
2.72371e-08
8.15082e-06
-6.27698e-06
-1.75839e-08
6.12714e-06
-6.17425e-06
4.71075e-08
8.15758e-06
-8.16445e-06
6.87499e-09
1.50821e-07
-8.17792e-06
8.16439e-06
1.35258e-08
8.17237e-06
-5.99151e-06
-5.94881e-06
-1.01629e-07
8.18316e-06
-8.18316e-06
-4.22108e-08
6.21717e-06
-8.17871e-06
8.16676e-06
-8.15995e-06
-6.80612e-09
8.18207e-06
-4.54932e-08
-8.17173e-06
-6.0821e-06
-7.62943e-07
-6.23307e-06
4.88906e-06
-5.46086e-06
5.71796e-07
-1.22506e-06
-5.2792e-06
6.50426e-06
8.15185e-06
-8.13028e-06
5.27914e-06
-6.16405e-06
-1.75453e-08
-8.16737e-06
8.17114e-06
-8.16436e-06
-6.77577e-09
6.27751e-06
-6.30805e-06
-1.72898e-06
-1.13835e-06
2.86733e-06
-6.51234e-06
6.56648e-06
6.3002e-06
-6.21717e-06
-2.48541e-08
-6.10932e-06
6.13417e-06
-2.80645e-08
-6.06341e-06
6.09147e-06
2.05344e-08
-6.3512e-06
6.33066e-06
5.80569e-08
-6.37673e-06
6.31867e-06
2.939e-08
-6.24997e-06
6.22058e-06
-1.25005e-08
-6.11631e-06
6.12881e-06
-1.48524e-08
-6.11124e-06
6.12609e-06
3.6812e-06
-2.47982e-06
-1.20138e-06
5.42751e-06
3.96433e-08
8.15412e-06
5.98411e-06
-6.01572e-06
3.16118e-08
1.92195e-08
-8.16794e-06
8.14872e-06
8.189e-06
-8.189e-06
8.08058e-06
-2.13089e-09
-8.07845e-06
-2.70658e-08
-8.14893e-06
8.16617e-06
-8.15906e-06
-7.10409e-09
-5.07509e-06
-6.66471e-06
-1.52559e-07
5.35149e-06
1.03918e-06
8.18242e-06
-8.17153e-06
-1.08904e-08
-6.22875e-06
6.47099e-06
2.70273e-08
8.16053e-06
-4.48817e-06
-2.8193e-06
5.92888e-08
5.86401e-06
-5.9233e-06
-4.18698e-06
-7.0711e-07
-1.40468e-06
-8.70965e-07
2.27564e-06
6.14223e-06
6.1433e-06
6.41256e-06
6.4123e-06
6.36786e-06
6.28738e-06
-2.85493e-08
-6.16022e-06
6.18877e-06
6.16252e-06
-6.99878e-09
-2.42822e-06
8.16878e-06
-8.14956e-06
-2.01439e-07
6.57041e-06
-8.19379e-06
-5.59479e-06
6.91442e-06
8.06953e-06
7.33628e-09
-8.07686e-06
8.19968e-06
-1.65268e-08
-8.18215e-06
2.92603e-08
8.15289e-06
-6.17067e-06
-6.18633e-06
6.18633e-06
-6.21488e-06
-5.63049e-06
6.80525e-06
-1.17476e-06
-1.4581e-08
-8.16348e-06
4.26197e-06
-5.31905e-06
1.3493e-08
-8.17676e-06
-8.16718e-06
-2.17315e-06
-3.1894e-06
-8.15252e-06
-1.54245e-08
6.25956e-06
1.95222e-06
4.75782e-06
8.15827e-06
-8.152e-06
-6.2757e-09
6.22088e-06
-4.12148e-06
-2.09939e-06
-2.96076e-06
1.55609e-06
-3.43111e-06
7.42691e-06
-2.97631e-06
6.1878e-06
-3.21149e-06
2.40941e-09
8.17828e-06
-8.12243e-06
8.16394e-06
-8.16871e-06
4.77113e-09
-4.62475e-06
1.97364e-06
2.65111e-06
-2.7305e-08
-6.15839e-06
6.18569e-06
8.55234e-06
-3.78838e-06
-4.76396e-06
6.15711e-09
8.07442e-06
-1.7772e-06
-2.84755e-06
-5.96717e-06
6.02646e-06
5.08946e-06
3.38042e-07
-5.9361e-06
-1.24915e-08
-6.16733e-06
6.17982e-06
6.37189e-06
-6.17396e-06
-3.79444e-06
-1.43749e-06
5.23194e-06
-8.15142e-06
8.15381e-06
-2.3899e-09
-6.02724e-06
6.11505e-06
8.16053e-06
-8.16581e-06
-5.45477e-06
-1.52062e-07
-8.22105e-06
8.18993e-06
-4.25702e-06
6.17213e-09
8.16458e-06
7.12313e-06
-3.93677e-06
-3.18636e-06
6.03144e-06
-1.14238e-06
6.73479e-06
-8.70784e-07
6.17625e-06
-6.20355e-06
8.14933e-06
-8.1498e-06
4.65256e-10
6.18406e-06
-6.19655e-06
7.49886e-09
-8.14525e-06
8.13775e-06
-3.43666e-06
-8.20361e-07
1.31254e-08