/*--------------------------------*- C++ -*----------------------------------*\
  =========                 |
  \\      /  F ield         | OpenFOAM: The Open Source CFD Toolbox
   \\    /   O peration     | Website:  https://openfoam.org
    \\  /    A nd           | Version:  12
     \\/     M anipulation  |
\*---------------------------------------------------------------------------*/
FoamFile
{
    format      ascii;
    class       volVectorField;
    location    "0.11";
    object      U;
}
// * * * * * * * * * * * * * * * * * * * * * * * * * * * * * * * * * * * * * //

dimensions      [0 1 -1 0 0 0 0];

internalField   nonuniform List<vector> 
4428
(
(0.000836904 0.000318021 1.01429e-16)
(-0.000847011 0.000350578 -9.03829e-17)
(-0.000769958 0.000352856 0)
(-0.000797708 0.00033835 0)
(0.000765811 0.000639278 8.16394e-17)
(0.000804787 0.000660527 3.2611e-21)
(-0.000763848 0.00044645 0)
(-0.000855006 0.000304131 1.46411e-16)
(0.000828299 0.000342933 -2.49066e-16)
(0.000857094 0.000245342 9.95378e-17)
(-0.000785034 0.000270697 -1.7333e-16)
(0.000780918 0.000339667 -1.76862e-16)
(-0.000883618 0.000181006 -2.03659e-16)
(-0.000269718 0.000981511 -9.58157e-17)
(0.000824401 0.000319581 0)
(0.000756515 0.000275068 0)
(0.000858865 0.0003105 0)
(-0.000785266 0.000270292 0)
(-0.000888135 0.000179773 0)
(0.00083485 0.000317725 0)
(0.000295143 0.000242916 -4.48035e-16)
(-0.000844102 0.000322957 -1.77702e-16)
(-0.000795064 0.00034194 0)
(-0.000874534 0.000292439 0)
(-0.000840047 0.000320947 2.26617e-17)
(-0.000795753 0.000290522 0)
(-0.000806817 0.00043387 1.03357e-16)
(0.000814752 0.000255505 2.07803e-16)
(0.000763702 0.000377685 0)
(-0.000897232 0.000198357 0)
(0.000834504 0.000193289 0)
(-0.000853455 0.000320352 -1.84204e-16)
(0.000844974 0.000269128 -9.00194e-17)
(-0.000872374 0.000427664 -2.77423e-16)
(-1.45642e-05 0.00114335 4.69772e-17)
(-0.000850137 0.000333186 1.99862e-16)
(-0.000837888 0.000426938 -4.41493e-21)
(0.000774176 0.00104345 1.27043e-17)
(-0.000114757 0.000992048 -2.62234e-17)
(-0.000799232 0.00035266 0)
(0.000846275 0.000304444 0)
(0.000756016 0.000237242 0)
(0.000798289 0.000270478 9.24317e-17)
(-0.000872941 0.000276592 1.66058e-16)
(0.000834155 0.000255937 0)
(0.000678992 0.000256504 0)
(0.000794421 0.0007668 -9.97838e-17)
(-0.000794263 0.000391052 2.03143e-16)
(-0.000810601 0.000347225 2.2446e-16)
(-0.000834955 0.000370153 0)
(0.000837291 0.00035487 0)
(0.000740258 0.000366461 1.88123e-16)
(0.00085952 0.00024767 -9.13184e-17)
(0.000750894 0.000377945 0)
(0.000772154 0.00033171 -1.39784e-17)
(0.000510952 0.000238437 0)
(0.000752197 0.000361833 -9.29928e-17)
(-0.000809291 0.000258436 0)
(0.000697131 0.00074925 1.8296e-16)
(0.000820728 0.000276928 -1.8201e-16)
(0.000859259 0.00033015 1.67096e-16)
(-0.000861543 0.000272411 0)
(0.000745957 0.000294254 2.79952e-16)
(-0.00085185 0.000319115 9.26981e-17)
(-0.00084826 0.000333864 0)
(0.000781648 0.000343113 0)
(-0.000868568 0.000280772 1.73157e-16)
(-0.000803682 0.000344613 -1.8582e-16)
(0.000809588 0.000286494 -1.82185e-16)
(-0.00083036 0.000360917 -3.61909e-16)
(-0.000872043 0.000268646 -9.16131e-17)
(0.000815996 0.000373637 2.12653e-16)
(0.000892059 0.000395658 5.80505e-17)
(-0.000787659 0.00033046 4.46953e-17)
(0.000832496 0.000292946 1.96649e-16)
(-1.48183e-05 0.00112531 -1.83295e-16)
(0.000860708 0.000396543 0)
(0.000885766 0.000352588 0)
(-0.000773712 0.00045048 -1.18144e-16)
(0.000594636 0.00027712 -4.29885e-21)
(0.00075493 0.00038911 -1.97539e-16)
(-0.000863649 0.000271108 0)
(0.000796544 0.00038487 -1.81063e-16)
(0.000809946 0.000341923 -1.72066e-16)
(0.000857571 0.000308413 3.18305e-16)
(-0.000931871 0.000284486 -2.5469e-16)
(-0.000112973 0.00127679 1.15143e-16)
(-0.000863178 0.000316351 0)
(-0.000849579 0.000323094 -9.6034e-17)
(0.000775819 0.000340856 2.04741e-17)
(0.000834064 0.000247546 8.36649e-17)
(0.000854671 0.000305985 -1.59368e-16)
(-0.000862382 0.000342784 0)
(-0.000861039 0.000321495 0)
(-0.000848846 0.000334487 9.81693e-17)
(-0.000822389 0.000348107 1.6712e-16)
(0.000850352 0.000336178 1.13531e-16)
(-0.000872372 0.000331734 -1.19903e-16)
(-0.00087317 0.00026588 9.28706e-17)
(0.000788387 0.000433601 0)
(0.000788256 0.000362389 -2.25141e-17)
(0.000814873 0.000320756 0)
(0.000835948 0.000293381 0)
(0.000754836 0.000284907 -1.87986e-16)
(0.000746144 0.000354794 -1.03702e-16)
(0.000767236 0.000369971 2.48898e-21)
(0.000819885 0.000337549 1.90326e-16)
(-0.000840179 0.000406228 -1.22456e-16)
(0.000855672 0.000334127 -1.20823e-16)
(0.000793673 0.000399842 0)
(0.000817504 0.000268512 1.64696e-16)
(0.00082069 0.000314699 -1.94804e-16)
(-0.0007886 0.000325864 2.63113e-21)
(0.000777813 0.000296242 1.65965e-16)
(-0.000477278 0.000299543 1.15542e-16)
(-0.000872042 0.000262096 1.80233e-16)
(-0.00018744 0.00109753 0)
(0.00033985 0.000265914 5.24747e-17)
(-0.000881084 0.00028818 8.87652e-17)
(0.000883034 0.000347209 -1.1286e-16)
(0.000883391 0.000342811 2.11532e-16)
(-0.000774421 0.000454083 2.41278e-16)
(0.000567609 0.000928895 -1.96896e-16)
(0.000838466 0.000272529 -3.03619e-16)
(5.90908e-06 0.0011438 1.78759e-16)
(-0.000852807 0.000319361 0)
(-0.000865442 0.000286733 -2.72258e-16)
(0.000786432 0.000333354 9.9509e-17)
(-0.000848627 0.000346917 -3.04101e-16)
(-0.000851229 0.000332075 9.66769e-17)
(-0.000871596 0.00027114 -1.87133e-16)
(-0.000833753 0.000344717 0)
(0.000844662 0.000338256 2.24127e-16)
(0.000804961 0.000305271 0)
(0.00081723 0.000318303 0)
(0.00087368 0.00037719 6.53789e-21)
(0.000871609 0.000364737 -2.43671e-16)
(-0.000870357 0.000265627 -1.82388e-16)
(-0.000853116 0.000327512 -1.83551e-16)
(-0.000844316 0.000342251 1.43949e-16)
(-0.00084388 0.000411109 -1.23707e-16)
(-0.00085305 0.000308276 -9.67486e-17)
(0.000804649 0.000323621 0)
(0.000810443 0.000327458 -1.99429e-16)
(0.00084693 0.000316516 0)
(0.00080075 0.000308638 9.67647e-17)
(0.000865286 0.00039637 1.28475e-16)
(-2.03466e-05 0.000811291 -9.13949e-17)
(0.000899156 0.000237973 2.88889e-16)
(-9.39831e-06 0.00114053 4.5441e-17)
(-0.000852215 0.000319594 -1.99513e-16)
(-0.000552563 0.00024908 1.00284e-16)
(0.000805376 0.00025407 -9.63484e-21)
(0.00089877 0.000306835 -2.48624e-16)
(-0.000850629 0.000331795 2.91595e-16)
(0.000862711 0.000320534 0)
(0.000786432 0.000527653 -1.77128e-16)
(0.000839946 0.000247277 -9.48485e-17)
(0.000832714 0.000297377 -1.78768e-16)
(-0.000859938 0.000276489 -9.12346e-17)
(-0.000846756 0.000352521 1.95448e-16)
(0.000824216 0.00032644 0)
(0.000891896 0.000273308 0)
(-0.000298358 0.000133655 -2.17178e-16)
(-0.000897243 0.000380732 1.19565e-16)
(-0.000871253 0.000268616 0)
(-0.000848963 0.000310918 0)
(0.000890562 0.000284369 0)
(-0.000849195 0.000326397 1.93054e-21)
(-0.00085355 0.000368524 9.36789e-17)
(-0.000869417 0.000282212 -9.38e-17)
(0.000850916 0.000338832 3.99455e-21)
(-0.000854929 0.00032094 0)
(0.000765 0.000324272 0)
(0.000783761 0.00101867 -1.16375e-17)
(-0.00090594 0.000385189 2.29079e-16)
(0.000858354 0.000308197 0)
(0.000745505 0.000383226 2.14591e-16)
(0.000805694 0.000345502 2.17941e-16)
(-0.000904955 0.000378083 1.1432e-16)
(-0.000113971 0.00114494 -7.02086e-21)
(-0.000822747 0.000341274 1.75079e-16)
(-0.000858059 0.000300277 1.91952e-16)
(0.000788382 0.000300301 0)
(-0.000851625 0.00032001 3.00573e-16)
(-0.00084357 0.00039644 -9.52176e-17)
(0.000842827 0.00032734 0)
(-0.000849372 0.000331034 0)
(0.000726456 0.000307693 3.43573e-16)
(0.000837578 0.000373931 0)
(0.000824616 0.000300086 0)
(0.000860027 0.00041903 2.58471e-17)
(0.000836861 0.000295508 0)
(0.000842884 0.000362113 -3.67875e-16)
(-0.000822525 0.000395043 0)
(-0.000820284 0.00039139 -1.80868e-16)
(-0.000819664 0.000390318 2.70926e-16)
(-0.000810813 0.000382992 8.8878e-17)
(0.00115774 0.00067095 1.48759e-16)
(-0.000264926 0.00121224 0)
(0.000839467 0.000381769 2.13765e-16)
(-0.000857477 0.000310315 -1.94082e-16)
(0.000668591 0.000357216 -1.90309e-16)
(-0.000863192 0.000277329 0)
(0.000763269 0.00029834 -1.76632e-16)
(0.00083018 0.00029164 -2.9806e-18)
(-0.000847459 0.000327627 9.32588e-17)
(-0.000188614 0.00131605 -1.77909e-16)
(-0.000422026 0.00114018 1.11842e-17)
(0.000562975 0.000294496 0)
(0.000850815 0.000367591 0)
(0.000927753 0.000323874 0)
(0.000845471 0.000355178 5.93715e-21)
(-0.000856049 0.000300943 0)
(0.000828008 0.000309882 0)
(-0.000829674 0.000386727 -1.4009e-16)
(-0.000821543 0.000381624 1.83785e-16)
(2.63713e-05 0.00114162 -1.84694e-16)
(-0.000801773 0.000311178 1.993e-16)
(-0.000816595 0.00038828 -4.53596e-17)
(0.000844423 0.000352192 1.95366e-16)
(0.000896905 0.000310546 -6.15122e-17)
(-0.000844173 0.000329157 1.85471e-16)
(0.000872756 0.000382493 0)
(-0.000822894 0.000390079 0)
(-0.000851216 0.000320708 0)
(-0.000858394 0.000328996 -1.08727e-16)
(0.000823914 0.000295786 -1.93045e-16)
(0.000785633 0.000331625 3.77476e-21)
(-0.000848735 0.000330732 0)
(-0.000851687 0.000309573 9.83249e-17)
(-0.000524907 0.00104204 0)
(0.00071759 0.000446388 0)
(0.000131767 0.00126488 8.61756e-17)
(0.000799827 0.000325422 5.74632e-17)
(-0.00082881 0.000377066 0)
(-0.000825268 0.000384554 0)
(-0.000825349 0.000381662 1.88219e-16)
(-0.000828241 0.000379902 -1.86175e-16)
(-0.000861514 0.000282515 2.97771e-16)
(-8.45316e-05 0.000218871 5.13889e-17)
(-0.000880151 0.000341818 -5.90069e-17)
(-0.000810971 0.000383183 6.23708e-17)
(0.00082696 0.000328494 2.23737e-17)
(-0.00085456 0.000303588 -9.62591e-17)
(-0.000233072 0.000857583 -1.01156e-16)
(-0.000844566 0.000404878 1.89328e-16)
(-0.000856968 0.000306042 1.92817e-16)
(0.000983844 0.00065714 0)
(-9.53497e-05 0.000858238 0)
(-0.000890656 0.000366978 6.08071e-21)
(0.00080812 0.000321432 2.04397e-16)
(0.000847579 0.000353468 -1.05651e-16)
(-0.000822602 0.000381143 1.81889e-16)
(0.000733322 0.000271658 -1.31318e-16)
(0.00014789 9.91367e-05 1.07918e-16)
(-0.000825313 0.000381964 -3.6559e-16)
(9.47411e-06 0.00113368 0)
(-0.000973945 0.000346067 -3.66793e-17)
(-0.000831767 0.000378792 -2.11764e-16)
(-0.000829202 0.000379707 1.90021e-16)
(-0.000295343 0.000148533 2.17219e-16)
(-0.000850998 0.000311556 0)
(0.00090454 0.000187821 1.23014e-16)
(-0.000825052 0.000379223 -9.37856e-17)
(-0.000845723 0.000328119 -1.00073e-16)
(0.000858677 0.00031114 0)
(-0.000826098 0.000380836 0)
(-0.000574214 0.00125431 1.37278e-16)
(-0.000877586 0.000296944 -1.83739e-16)
(0.000826806 0.00028495 0)
(0.000861645 0.000400774 2.37182e-16)
(0.000824472 0.000328636 1.23125e-17)
(-0.000169027 0.000922533 2.58444e-16)
(-0.000851727 0.000321974 0)
(0.000804172 0.000342744 1.98133e-16)
(0.00083388 0.000315499 -2.63565e-16)
(-0.00085278 0.000308609 1.94299e-16)
(0.000885151 0.000424826 0)
(0.00014175 9.61773e-05 -1.10466e-16)
(-0.00092886 0.000387849 -2.49765e-22)
(-0.000147478 0.00116686 9.63417e-17)
(0.000826948 0.00031235 0)
(-0.000859741 0.000286768 -2.99179e-16)
(0.000767573 0.000435134 3.93349e-16)
(0.000752943 0.000436327 -9.12449e-17)
(0.000834872 0.000327517 -1.32951e-17)
(0.000837905 0.000283967 -1.26248e-16)
(0.000838326 0.000331796 1.94439e-16)
(0.000841923 0.00031121 0)
(-0.000934679 0.000280324 1.4358e-16)
(-0.000882205 0.000287886 -1.87093e-16)
(-0.000832935 0.00037202 -7.47203e-19)
(0.000791027 0.000383933 0)
(0.000776309 0.000341652 2.14673e-16)
(0.000269222 9.42387e-05 2.31987e-16)
(-0.000846322 0.000315436 1.95536e-16)
(-0.000823634 0.000378359 2.07965e-16)
(-0.000843456 0.000384338 0)
(-0.000520399 0.00122382 1.96765e-16)
(-0.000854859 0.000310547 5.90728e-21)
(0.000790313 0.000297514 1.14695e-16)
(-0.000850203 0.000313099 0)
(-0.000829634 0.00037825 -1.18784e-17)
(-0.000828629 0.000380755 0)
(-0.000827849 0.000380532 -1.85914e-16)
(-0.000852496 0.000332275 0)
(-0.000118561 0.00126175 -1.19593e-16)
(0.000556599 0.000314165 -3.44561e-16)
(0.000820056 0.000422312 1.25598e-16)
(-0.000852407 0.000311239 9.7972e-17)
(0.000814322 0.00032194 0)
(0.000870393 0.000414161 -1.26568e-16)
(-0.000143275 0.00124055 -1.90456e-16)
(0.000511237 0.00017191 -2.23908e-16)
(0.000825149 0.000338413 0)
(0.000842708 0.000373728 0)
(0.00081944 0.000348488 -1.87618e-16)
(-0.000858168 0.000291614 0)
(-0.000846509 0.000323165 1.96572e-16)
(-0.000210596 0.00136617 -6.17612e-18)
(-0.000898066 0.000389336 -1.01492e-16)
(-0.000785074 0.000301883 6.10884e-17)
(0.000810634 0.000314241 3.89327e-16)
(-0.000603273 0.00185758 -1.4608e-16)
(0.00138628 0.000546346 -1.97879e-16)
(0.000786473 0.000361959 -2.12587e-16)
(-0.000840827 0.000326702 9.64315e-17)
(-0.000841924 0.000393453 -1.21775e-17)
(-0.000822189 0.000383881 -1.89497e-16)
(0.000822788 0.000314046 2.09791e-16)
(-0.000846105 0.000317164 0)
(-0.000850292 0.000313853 9.90858e-17)
(-0.00097298 0.000343262 1.50961e-16)
(-0.000853203 0.000406112 0)
(-0.000840498 0.000386135 0)
(0.000869264 0.000405252 -1.23285e-16)
(0.000781392 0.000300405 0)
(-0.000850884 0.000320449 0)
(0.000793593 0.000299484 0)
(-0.000829037 0.000379358 1.18325e-17)
(-0.000838971 0.000374774 7.54744e-19)
(0.000770082 0.000252349 0)
(0.000832272 0.000310593 1.92892e-16)
(-9.64087e-06 0.0011419 0)
(0.000829753 0.00027244 0)
(-0.000853714 0.000313647 4.92543e-17)
(-0.000858203 0.000306518 -3.01487e-16)
(8.44527e-05 0.000504104 0)
(-0.000844016 0.000325421 -1.9342e-16)
(-0.000886802 0.000196182 9.23829e-17)
(-0.000894695 0.000347177 -4.36258e-21)
(-0.000906467 0.000304274 -2.43399e-16)
(-0.000973695 0.000336161 1.51163e-16)
(-0.000831329 0.000394981 0)
(-0.000859311 0.000296706 2.02117e-16)
(-0.000843555 0.000324097 1.00296e-16)
(0.000829885 0.000313576 0)
(-0.000835573 0.000287363 1.62547e-16)
(-0.000847575 0.000315752 -2.68742e-16)
(-1.14429e-06 0.0011076 0)
(-0.0008251 0.000376259 -2.8044e-16)
(-0.000851398 0.000353306 0)
(-0.000853099 0.000317407 0)
(0.000843663 0.000309446 2.0312e-16)
(-0.00085026 0.000311154 1.01386e-16)
(0.000740719 0.000266734 2.14784e-16)
(0.000840653 0.000339484 -2.03934e-16)
(-0.000596713 0.000290389 0)
(-0.00090133 0.000302499 0)
(-0.000844584 0.000325479 0)
(0.000826596 0.000321741 -2.12712e-16)
(0.000843119 0.000365253 0)
(0.000835096 0.000316561 0)
(-0.000905269 0.000392595 -2.99367e-16)
(0.000128582 0.00111602 2.17988e-16)
(-0.00083482 0.000390522 1.92281e-16)
(0.000865834 0.000265459 -2.15591e-16)
(-1.55415e-05 0.000591571 -6.19437e-17)
(-0.000849299 0.000331218 0)
(-0.000846236 0.0003602 2.99759e-16)
(-0.00081058 0.000384417 -1.80341e-16)
(8.93736e-05 0.000867738 1.08288e-16)
(0.000884763 0.000176425 0)
(0.000912333 0.000234095 1.14709e-16)
(0.000798351 0.00034043 1.77803e-16)
(-0.000169663 0.000128667 2.10734e-16)
(-0.000847327 0.00031345 -9.03941e-17)
(0.00083414 0.000330466 0)
(0.000517931 0.000195358 0)
(0.000716929 0.000218412 3.86493e-16)
(-0.00084561 0.000326068 0)
(0.000877248 0.000279786 -1.0723e-16)
(-0.000908182 0.000234726 1.26095e-16)
(-0.000851782 0.000324515 9.5813e-17)
(0.000806525 0.000322901 -1.95169e-16)
(-0.000963555 0.000361355 -1.35982e-16)
(-0.000803912 0.000338737 1.84901e-16)
(-0.000926182 0.000426343 1.01009e-16)
(-0.000632804 0.000250199 -1.08944e-16)
(-0.000853292 0.000322187 0)
(-0.000849894 0.000323153 0)
(-5.89267e-05 0.0004261 0)
(7.1419e-06 0.00110496 -2.50984e-16)
(-0.000903534 0.000315434 0)
(-0.000856257 0.000422305 -8.72313e-17)
(0.000824143 0.000316332 3.76167e-16)
(0.00079069 0.000335533 -1.11176e-16)
(0.000824942 0.000292166 3.79533e-16)
(0.000834805 0.000347654 -5.49161e-17)
(0.000828852 0.000314571 -5.5493e-21)
(-0.000841952 0.000339653 -4.91295e-17)
(-0.000844211 0.00032944 -9.63678e-17)
(-6.91792e-05 0.0013047 5.97398e-18)
(-0.000847193 0.000326821 -1.95298e-16)
(-0.000841595 0.000352332 -5.15037e-17)
(0.000789138 0.000342912 0)
(-0.000849575 0.000326507 -9.7588e-17)
(-0.000909249 0.000339342 -3.58926e-16)
(-0.000828786 0.000372464 -1.39396e-17)
(-0.000853518 0.000318973 0)
(-0.000861132 0.000277739 4.83501e-17)
(-0.000849244 0.000314412 -9.87678e-17)
(0.000899875 0.000396556 -2.08725e-16)
(-0.000842682 0.000334428 -9.94727e-17)
(0.000119316 0.00126264 6.9656e-18)
(0.000807986 0.000293385 2.44314e-17)
(-2.4081e-05 0.00123973 -1.98862e-16)
(-0.000940003 0.000392686 2.82355e-16)
(-0.000819799 0.000276427 -3.98533e-16)
(0.000827482 0.000319348 1.03055e-16)
(-0.000941135 0.000393057 1.25938e-16)
(0.000123485 0.000645552 8.11337e-17)
(-0.000840484 0.000333133 1.97982e-16)
(0.000804646 0.000274636 1.76672e-16)
(-9.2427e-06 0.00121653 0)
(-2.16662e-05 0.00107318 -2.83929e-16)
(-0.000843347 0.000348816 -1.5723e-16)
(0.000816991 0.000278514 -5.1959e-17)
(-9.5654e-06 0.0012133 7.90282e-19)
(0.000992409 0.000394936 9.76718e-17)
(-0.000780106 0.000312902 2.95301e-16)
(-0.000851914 0.000323663 -5.0989e-17)
(-0.000862696 0.000303662 0)
(-0.000881868 0.000321489 2.29034e-16)
(0.000817451 0.000330598 -2.02298e-16)
(-0.000844465 0.000330107 -9.68023e-17)
(0.000814678 0.000323202 0)
(-1.94727e-06 0.00120672 -2.01875e-16)
(-0.00090639 0.000345817 1.20771e-16)
(0.0009503 0.000851836 -3.66331e-16)
(0.000838922 0.000319545 0)
(-5.38903e-06 0.00120688 0)
(0.000861064 0.000345268 5.94538e-21)
(3.5718e-06 0.00120335 -2.02113e-16)
(1.90856e-06 0.00120653 4.01908e-16)
(-0.000841906 0.000330525 4.98497e-17)
(-7.52986e-05 0.00124299 1.9771e-16)
(-3.21343e-06 0.00120247 0)
(-7.77412e-06 0.00120815 2.01158e-16)
(-0.000842678 0.000328569 0)
(0.000972394 0.000539219 0)
(3.94642e-06 0.00120501 0)
(-1.87826e-06 0.00120487 -2.01441e-16)
(-0.000840265 0.00034507 0)
(-4.30858e-06 0.00120573 4.05277e-16)
(-0.000850228 0.000322162 0)
(-1.77443e-06 0.00120563 -2.02421e-16)
(-0.000843542 0.000328713 -2.93186e-16)
(-2.12928e-06 0.00120167 0)
(-0.000835269 0.000346603 9.67036e-17)
(-0.00038125 0.00137843 -4.71373e-17)
(0.000885196 0.000399582 2.5026e-16)
(0.000908603 0.000340907 0)
(2.41842e-07 0.00120473 1.45301e-20)
(-4.72648e-06 0.00120649 -1.99391e-16)
(-0.00085856 0.000281169 -8.51756e-17)
(0.000806367 0.00036196 -2.05745e-16)
(0.000724261 0.000294744 0)
(0.00082316 0.00031651 3.10266e-16)
(-8.91873e-07 0.00120505 2.02001e-16)
(-0.000840731 0.00032978 0)
(-2.96679e-05 0.00121844 2.00565e-16)
(-8.69322e-07 0.00120228 0)
(-2.06665e-06 0.00120414 -2.04882e-16)
(-0.00084653 0.000329933 0)
(0.000829429 0.000358735 1.95268e-16)
(-0.000849391 0.000324929 2.68289e-21)
(2.98055e-07 0.00120193 2.02887e-16)
(0.000840861 0.000308379 -4.19353e-16)
(0.000127449 0.000711386 0)
(-4.35309e-06 0.00120638 0)
(0.000933824 0.000431611 1.46626e-16)
(0.000826944 0.000287603 0)
(-9.42835e-05 0.00129302 0)
(-0.00084904 0.000321267 -3.52293e-16)
(-3.23898e-05 0.00123435 0)
(-0.000844242 0.000329471 9.75579e-17)
(-0.000715923 0.000611584 -5.25379e-17)
(-0.000840351 0.000345307 2.01114e-16)
(2.95484e-07 0.00120288 -4.04628e-16)
(-0.000862569 0.000317124 5.41577e-17)
(-0.000834838 0.000346672 1.92965e-16)
(-1.48159e-06 0.00120361 0)
(-2.94059e-06 0.00120179 -1.98251e-16)
(0.000777468 0.000261923 0)
(3.86458e-07 0.00120442 -2.04208e-16)
(7.64395e-07 0.00120323 0)
(-5.65285e-05 0.00125126 2.01278e-16)
(7.79959e-07 0.0010785 -2.27206e-16)
(-0.000827042 0.000358072 1.17407e-16)
(-1.74262e-05 0.00122058 9.81739e-20)
(0.000599029 0.000175807 0)
(-0.00087041 0.000317855 7.99857e-17)
(-0.000822459 0.00035048 4.68857e-17)
(2.5628e-06 0.00120127 4.05018e-16)
(-4.78348e-06 0.00120578 2.01603e-16)
(-0.000861704 0.00033249 -4.66003e-16)
(7.61393e-07 0.00120333 2.02685e-16)
(0.000759424 0.000239245 6.6718e-21)
(-6.19966e-06 0.0012035 2.00603e-16)
(-0.000852477 0.000323914 0)
(-0.000839284 0.000337333 5.12183e-17)
(-6.40899e-07 0.00120382 -1.45966e-20)
(0.000819276 0.000409898 2.10083e-16)
(-0.000847449 0.000330894 -1.02842e-16)
(-0.000835891 0.000345145 -8.99002e-17)
(-2.99226e-06 0.00120521 -2.01526e-16)
(0.00082319 0.000322968 3.51597e-18)
(-1.48508e-07 0.00120431 -1.46006e-20)
(-0.00085531 0.000322871 4.80868e-17)
(3.88391e-06 0.00120215 0)
(-0.000849694 0.000320977 0)
(-7.01754e-06 0.00120524 -2.01468e-16)
(6.09434e-07 0.00120417 2.02267e-16)
(0.000820871 0.000342057 -2.45281e-17)
(-0.000865623 0.00029778 2.19722e-16)
(-6.39252e-06 0.00120368 1.99773e-16)
(1.49722e-06 0.00120196 0)
(-0.000841872 0.000342097 0)
(-0.00083819 0.000344923 1.53403e-16)
(-0.000865987 0.000274463 0)
(-4.49006e-05 0.000742227 -1.08309e-16)
(-2.24929e-07 0.00120421 2.02711e-16)
(-0.000836177 0.000343872 -1.45373e-16)
(-0.000842706 0.000331018 0)
(-0.000839058 0.000319258 5.3013e-17)
(-1.12446e-05 0.00120776 1.97008e-16)
(6.07099e-08 0.00120243 -1.46738e-20)
(-0.000845138 0.00032302 -5.1413e-17)
(0.000489749 5.89973e-05 -2.18994e-16)
(-1.07357e-05 0.00121043 -2.00427e-16)
(-3.48336e-06 0.00120558 2.02106e-16)
(1.67745e-06 0.0012026 2.02983e-16)
(-1.75226e-07 0.00120658 -2.00157e-16)
(0.00100445 0.000510128 -1.92049e-16)
(-7.22607e-06 0.00120368 -2.0111e-16)
(-0.000851322 0.000321421 0)
(-0.000837592 0.000315031 0)
(0.000805866 0.000314819 0)
(-1.85643e-06 0.00120233 -2.03572e-16)
(-0.000835006 0.000346169 2.48143e-16)
(0.00081812 0.000303618 -1.57152e-16)
(-0.000805998 0.000327144 2.71355e-16)
(-0.000844316 0.000328638 -1.96917e-16)
(-0.000845615 0.000326941 -1.01263e-16)
(-0.000911975 0.000429231 -1.00455e-16)
(-3.59365e-06 0.00120284 -4.05796e-16)
(3.29616e-06 0.00120246 8.46291e-20)
(-0.000846198 0.000351159 -5.8005e-17)
(-0.000846183 0.000338999 4.59961e-17)
(-0.00084596 0.000328562 -5.0527e-17)
(4.85982e-06 0.00120393 -2.02618e-16)
(9.96341e-07 0.00120244 4.10229e-16)
(-5.94229e-06 0.00120373 -2.02963e-16)
(1.02085e-06 0.00120371 -7.95374e-19)
(-0.00084406 0.000334209 4.91297e-17)
(-4.18893e-06 0.00120293 0)
(5.77951e-06 0.00120332 -2.03786e-16)
(3.8931e-06 0.00120203 2.02752e-16)
(4.99171e-06 0.001204 3.50527e-20)
(-0.000846287 0.00032052 1.0207e-16)
(-6.75965e-06 0.00121038 0)
(-0.000847666 0.000322356 -2.00617e-16)
(-0.00087309 0.000314883 0)
(0.000829092 0.00031718 -2.2246e-16)
(-5.02298e-07 0.00120316 -1.57906e-18)
(0.00078986 0.000319134 1.97904e-16)
(7.66295e-07 0.00120308 -1.45348e-20)
(-7.3062e-05 0.0012348 0)
(-4.90931e-05 0.00121929 -1.99273e-16)
(-0.000847734 0.000323358 0)
(-0.000854289 0.00032233 -9.86567e-17)
(8.28864e-06 0.00120232 0)
(-0.000841025 0.000325653 -2.14075e-16)
(-0.000845071 0.000330908 -1.06355e-16)
(0.000824794 0.000328795 2.13743e-16)
(4.66545e-07 0.00120288 -2.03085e-16)
(-6.93941e-06 0.00120376 -2.03161e-16)
(-0.000849152 0.000335259 5.5554e-17)
(-1.3319e-06 0.00120319 -2.00309e-16)
(-0.000837636 0.000318164 3.11588e-16)
(-5.65841e-06 0.0012027 -2.02292e-16)
(1.70975e-06 0.00120338 -1.45605e-20)
(-0.000846095 0.000367611 -2.36561e-16)
(-7.61847e-06 0.00120355 2.00631e-16)
(0.000830559 0.00031381 0)
(-0.000843785 0.000330152 -5.02514e-17)
(-4.20686e-07 0.00120291 3.18894e-18)
(-0.000849907 0.000318065 1.00776e-16)
(-2.11728e-07 0.00120254 -1.60075e-18)
(-0.000844082 0.000324055 5.04608e-17)
(-0.000801514 0.000295312 0)
(3.19266e-06 0.00120346 -1.46336e-20)
(-0.000920513 0.000388577 3.00919e-16)
(7.33302e-07 0.00120404 2.04472e-16)
(0.000772166 0.000384605 -5.87778e-17)
(-0.000818623 0.000358541 1.95207e-16)
(-2.5925e-07 0.00120327 2.04618e-16)
(0.00061479 0.000243258 2.15027e-16)
(-1.56866e-06 0.00120333 2.03322e-16)
(9.697e-07 0.00120318 3.17273e-18)
(0.000704545 0.000257872 2.27234e-16)
(0.000754414 0.00026726 -2.12542e-16)
(0.000857945 0.000337409 0)
(-0.000911755 0.000372253 0)
(-7.00336e-06 0.00120345 -1.59109e-18)
(0.000782949 0.000297902 2.79973e-16)
(-6.80891e-06 0.00120274 -1.57974e-18)
(-0.000845864 0.00032772 -9.82434e-17)
(0.000773208 0.000258578 0)
(6.35456e-06 0.00120298 -4.05558e-16)
(1.05112e-06 0.00120304 -4.08074e-16)
(-0.000841556 0.000339489 0)
(-0.000846539 0.000320114 0)
(7.34873e-07 0.00120398 -4.05524e-16)
(-2.4003e-05 0.00121542 0)
(-0.000838412 0.000350083 -1.95481e-16)
(-1.6122e-05 0.00120994 -4.00519e-16)
(-0.000769301 0.000280644 0)
(0.000874447 0.000269892 5.24853e-17)
(6.44393e-08 0.00120177 -1.60742e-18)
(2.7634e-06 0.00120433 2.04313e-16)
(0.000658114 0.000410427 -7.03682e-18)
(3.25359e-07 0.00120301 -2.04795e-16)
(-0.000851213 0.000313877 1.57439e-16)
(-0.000911152 0.000419077 1.38985e-16)
(-7.53099e-06 0.00120325 2.0187e-16)
(-0.000849522 0.000317588 1.45749e-16)
(-1.31805e-06 0.00120358 2.04816e-16)
(-7.03794e-06 0.00120289 -2.02608e-16)
(-7.91244e-06 0.00120309 -2.0191e-16)
(-0.000838345 0.00034102 0)
(-0.000848038 0.0003187 -4.98687e-17)
(-8.48283e-07 0.00120281 -7.98793e-19)
(7.22358e-06 0.00120333 0)
(-0.000837142 0.000340763 1.9869e-16)
(-0.000844706 0.000318817 0)
(1.09037e-06 0.00120309 -2.03404e-16)
(-5.86992e-06 0.00120689 3.16235e-18)
(0.00082343 0.000319797 -2.14737e-16)
(1.10051e-06 0.00120315 -4.10858e-16)
(-0.000909561 0.000352603 3.4158e-16)
(-4.49586e-07 0.00120312 0)
(-3.67542e-07 0.00120336 2.02763e-16)
(-2.38155e-07 0.00120325 0)
(-2.4537e-08 0.00120306 2.02823e-16)
(9.05607e-07 0.00120297 -2.0231e-16)
(0.000694829 0.000275213 1.21378e-16)
(3.18331e-07 0.00120273 2.02452e-16)
(5.55272e-07 0.00120554 -1.46591e-20)
(-7.14474e-09 0.0012031 2.04805e-16)
(-8.21249e-06 0.0012033 4.04652e-16)
(-0.000847894 0.000324187 0)
(-0.000847592 0.000326241 -5.25281e-17)
(-7.16408e-06 0.00120305 0)
(-1.64414e-07 0.00120317 0)
(-8.48561e-07 0.00120266 -2.06615e-16)
(7.22368e-06 0.00120367 2.03102e-16)
(5.98701e-06 0.00120367 2.03867e-16)
(-0.000845415 0.000330087 2.57699e-16)
(6.44605e-06 0.00120313 2.03298e-16)
(-4.63269e-07 0.0012034 -2.04796e-16)
(-1.14463e-06 0.00120321 0)
(-3.1969e-07 0.00120311 -1.47072e-20)
(-0.000847366 0.000326356 1.00377e-16)
(7.15809e-06 0.00120327 0)
(6.78068e-06 0.00120284 2.0344e-16)
(-2.85615e-06 0.00120544 -2.0526e-16)
(-0.000852149 0.00031767 0)
(-6.17706e-09 0.00120314 0)
(0.000831133 0.000319922 -2.13233e-16)
(-1.3843e-07 0.00120396 1.59881e-18)
(-1.1533e-07 0.00120424 -3.98544e-19)
(-5.80494e-06 0.00120212 -7.92079e-19)
(-7.96886e-06 0.00120291 1.46026e-20)
(-6.39486e-06 0.00120239 7.92726e-19)
(-0.000852738 0.000377902 -1.24097e-16)
(-7.65357e-06 0.00120229 2.03614e-16)
(4.0381e-06 0.00120321 0)
(-7.50781e-06 0.00120247 2.02166e-16)
(-7.61494e-06 0.00120271 -2.02511e-16)
(-8.03518e-06 0.00120322 -2.03452e-16)
(-0.0010222 0.000836702 -3.08468e-16)
(-0.000194413 0.000240536 -3.843e-16)
(7.38933e-06 0.0012034 -2.03717e-16)
(-7.26682e-07 0.00120307 -2.03075e-16)
(8.47605e-08 0.00120333 -2.03029e-16)
(6.64562e-06 0.00120283 2.03501e-16)
(-0.000851711 0.000321292 -2.02476e-16)
(-8.52289e-06 0.0012027 2.02143e-16)
(-7.25397e-07 0.00120332 -2.02694e-16)
(-5.53516e-06 0.00120562 -4.03173e-16)
(-6.17228e-07 0.00120294 -1.60332e-18)
(7.89415e-06 0.00120293 2.02732e-16)
(0.000824666 0.000316131 2.13268e-16)
(-2.54721e-06 0.00120371 -2.02732e-16)
(4.71498e-07 0.00120311 -1.45911e-20)
(0.000878907 0.000362196 -2.63009e-16)
(-2.58223e-07 0.00120306 0)
(-5.19874e-07 0.0012031 0)
(-8.49485e-06 0.00120293 -4.06259e-16)
(-0.000847492 0.000325158 1.00718e-16)
(1.60815e-07 0.0012024 -4.00499e-19)
(-9.84696e-06 0.00120333 2.12283e-19)
(0.000828968 0.000312569 1.41757e-17)
(-9.05136e-06 0.00120392 2.03079e-16)
(8.96537e-06 0.00120337 2.03051e-16)
(8.22136e-06 0.00120314 -2.02904e-16)
(2.04556e-06 0.00120306 -2.03474e-16)
(-9.62825e-06 0.00120343 1.45958e-20)
(-0.00087973 0.000310299 -2.15477e-16)
(-0.000715259 0.000272727 2.65481e-16)
(-8.99466e-07 0.00120192 -1.46754e-20)
(-5.51511e-07 0.00120302 -2.02593e-16)
(-0.000840147 0.000341776 5.11243e-17)
(7.64441e-07 0.00120317 -1.47075e-20)
(-8.87964e-06 0.00120252 8.05162e-19)
(8.91304e-06 0.00120293 -4.06049e-16)
(4.0254e-06 0.00120179 2.03837e-16)
(7.55794e-06 0.00120266 -2.03835e-16)
(7.43834e-06 0.00120291 -2.03829e-16)
(8.90199e-06 0.00120308 2.03128e-16)
(7.40034e-06 0.00120275 1.98682e-19)
(8.83654e-06 0.00120313 0)
(0.000831154 0.000314283 0)
(-7.18665e-06 0.00120322 2.04491e-16)
(-5.79669e-07 0.00120448 0)
(1.59909e-06 0.00120402 2.0374e-16)
(8.85444e-06 0.00120308 0)
(8.81555e-06 0.00120319 2.03197e-16)
(8.93507e-06 0.00120298 -9.91928e-20)
(9.65403e-07 0.00120401 1.99367e-16)
(8.02529e-06 0.00120361 0)
(-2.22233e-06 0.00120431 0)
(-7.44909e-06 0.00120414 -2.04712e-16)
(-0.000845384 0.00032712 -2.46929e-21)
(7.85799e-06 0.00120306 0)
(-1.78407e-05 0.00122362 0)
(7.72958e-06 0.00120308 0)
(-0.000827414 0.000315453 1.57172e-16)
(6.23392e-07 0.00120314 -2.02845e-16)
(-5.54421e-06 0.00120563 2.04684e-16)
(8.08195e-06 0.0012038 -9.94064e-20)
(-0.000826838 0.000347179 5.56773e-17)
(-0.000840968 0.000341766 -5.08326e-17)
(7.08015e-06 0.00120355 -2.03823e-16)
(-2.07939e-06 0.00120124 0)
(-3.0054e-07 0.00120524 -2.03904e-16)
(7.16351e-06 0.00120365 1.46485e-20)
(8.90603e-06 0.00120291 -2.03663e-16)
(-9.77565e-07 0.00120047 4.05048e-16)
(0.000803787 0.000267009 -3.65599e-16)
(0.000830015 0.00032215 -4.30925e-16)
(-1.20747e-06 0.00120352 4.07257e-16)
(0.000818616 0.000322225 0)
(6.99869e-06 0.00120365 0)
(9.04164e-06 0.00120276 -3.97003e-19)
(-0.00086498 0.000342628 -1.84025e-16)
(-0.000843922 0.00034575 1.05907e-16)
(5.62353e-07 0.00120263 -1.00205e-19)
(7.06303e-06 0.00120376 2.03875e-16)
(7.60964e-07 0.00120312 -2.03133e-16)
(-0.000771347 0.00073804 1.02778e-16)
(6.68782e-06 0.00120362 7.9686e-19)
(-8.67086e-06 0.00120377 2.03305e-16)
(-7.09077e-07 0.00120479 2.04075e-16)
(-0.000963964 0.000493563 -2.01503e-16)
(6.90906e-06 0.00120401 0)
(-4.93282e-07 0.00120325 4.01581e-19)
(-1.82633e-06 0.00120441 -2.03108e-16)
(-0.000848126 0.000321567 0)
(0.000861929 0.000239232 3.8579e-16)
(-0.000835681 0.000348752 5.36686e-17)
(6.60774e-06 0.00120374 -7.96991e-19)
(9.28807e-07 0.00120351 -2.03833e-16)
(-7.71666e-06 0.00120241 -2.0366e-16)
(-0.000843972 0.000339116 3.041e-16)
(6.6408e-06 0.00120415 -2.04093e-16)
(-1.01663e-05 0.00120285 7.93034e-19)
(5.32986e-07 0.0012026 2.00595e-19)
(8.24253e-06 0.00120286 0)
(-3.2554e-07 0.00120499 0)
(8.34263e-06 0.00120276 0)
(8.67448e-07 0.00120355 0)
(-0.000845407 0.000321597 -5.05813e-17)
(-9.09289e-06 0.00120241 0)
(-5.92864e-07 0.00120318 0)
(0.000892875 0.000419267 1.57512e-16)
(6.02683e-07 0.00120355 0)
(-4.8865e-05 0.00125227 0)
(-2.42868e-07 0.00120499 4.08017e-16)
(4.46441e-07 0.00120261 0)
(0.000823706 0.000302108 -4.81152e-17)
(0.000828551 0.000321797 0)
(0.000734243 0.000373575 1.05925e-16)
(0.000811187 0.00029138 -2.06201e-16)
(9.42563e-07 0.00120383 -4.07231e-16)
(-0.000761248 0.000332038 0)
(3.65067e-07 0.00120358 -1.99185e-19)
(-0.000839582 0.000339859 -9.91596e-17)
(9.28522e-06 0.00120295 0)