/*--------------------------------*- C++ -*----------------------------------*\
  =========                 |
  \\      /  F ield         | OpenFOAM: The Open Source CFD Toolbox
   \\    /   O peration     | Website:  https://openfoam.org
    \\  /    A nd           | Version:  12
     \\/     M anipulation  |
\*---------------------------------------------------------------------------*/
FoamFile
{
    format      ascii;
    class       volVectorField;
    location    "0.18";
    object      U;
}
// * * * * * * * * * * * * * * * * * * * * * * * * * * * * * * * * * * * * * //

dimensions      [0 1 -1 0 0 0 0];

internalField   nonuniform List<vector> 
4428
(
(0.00136942 0.000519815 1.01428e-16)
(-0.00138656 0.000572541 -9.03822e-17)
(-0.00125276 0.000573424 0)
(-0.00130448 0.000550792 0)
(0.00125436 0.00104079 8.16387e-17)
(0.00130137 0.00106881 3.22637e-21)
(-0.00124698 0.000716671 0)
(-0.00139913 0.000498691 1.46409e-16)
(0.00134531 0.00055035 -2.49064e-16)
(0.00138802 0.000402736 9.95369e-17)
(-0.00127253 0.000443177 -1.73329e-16)
(0.00128373 0.000542204 -1.76861e-16)
(-0.00143837 0.000303838 -2.03657e-16)
(-0.000447329 0.00160876 -9.58149e-17)
(0.00134851 0.000523998 0)
(0.00123105 0.000452358 0)
(0.00139308 0.000501074 0)
(-0.00127324 0.000442003 0)
(-0.00144674 0.000302393 0)
(0.00136295 0.000524884 0)
(0.000484462 0.000397921 -4.48034e-16)
(-0.00138066 0.00052932 -1.777e-16)
(-0.00130292 0.000554698 0)
(-0.00141972 0.000484766 0)
(-0.00137425 0.000524605 2.26615e-17)
(-0.00130309 0.000482474 0)
(-0.00131784 0.000698859 1.03356e-16)
(0.00132497 0.000428623 2.07802e-16)
(0.0012373 0.000609789 0)
(-0.00145605 0.000333687 0)
(0.00134776 0.000328942 0)
(-0.00139644 0.000527078 -1.84202e-16)
(0.00136995 0.000435683 -9.00188e-17)
(-0.00141955 0.000689802 -2.7742e-16)
(-1.25987e-05 0.00186457 4.69767e-17)
(-0.00139246 0.000543426 1.9986e-16)
(-0.00136591 0.000688594 -4.42642e-21)
(0.001268 0.00170895 1.27042e-17)
(-0.00020205 0.00161632 -2.62231e-17)
(-0.00130706 0.000573816 0)
(0.0013757 0.000495358 0)
(0.00124782 0.000400235 0)
(0.00130892 0.000445677 9.24311e-17)
(-0.00142409 0.000456274 1.66056e-16)
(0.00136636 0.000431661 0)
(0.00111615 0.000418233 0)
(0.00130801 0.0012532 -9.97827e-17)
(-0.00130265 0.000633308 2.03142e-16)
(-0.00132362 0.000557565 2.24458e-16)
(-0.00136381 0.000600832 0)
(0.00136713 0.00057346 0)
(0.00122285 0.000587831 1.88121e-16)
(0.00139621 0.000400173 -9.13177e-17)
(0.00124006 0.000604435 0)
(0.00126796 0.000538022 -1.39783e-17)
(0.000823663 0.000392109 0)
(0.00121792 0.000580371 -9.2992e-17)
(-0.00133414 0.000435349 0)
(0.00114034 0.00122312 1.82959e-16)
(0.00133839 0.000458469 -1.82009e-16)
(0.00139972 0.00053827 1.67095e-16)
(-0.00139876 0.000444796 0)
(0.00121852 0.000484567 2.7995e-16)
(-0.00139333 0.000524679 9.26974e-17)
(-0.00138938 0.000544528 0)
(0.00128059 0.00056273 0)
(-0.00142129 0.000464047 1.73156e-16)
(-0.00131506 0.00056131 -1.85819e-16)
(0.00132356 0.000471373 -1.82184e-16)
(-0.00134858 0.000587037 -3.61906e-16)
(-0.00142685 0.000444478 -9.16124e-17)
(0.00134219 0.000611564 2.12651e-16)
(0.00145519 0.000637177 5.80499e-17)
(-0.00129262 0.000538542 4.4695e-17)
(0.00136341 0.000477417 1.96648e-16)
(-2.41298e-05 0.00184316 -1.83293e-16)
(0.00139547 0.000639701 0)
(0.00143616 0.0005614 0)
(-0.00126024 0.000722491 -1.18143e-16)
(0.000979012 0.000463012 -4.34709e-21)
(0.0012249 0.000628971 -1.97537e-16)
(-0.00141538 0.000447238 0)
(0.00131252 0.000628784 -1.81062e-16)
(0.0013241 0.000550586 -1.72065e-16)
(0.00139383 0.00049857 3.18303e-16)
(-0.00151505 0.000479339 -2.54687e-16)
(-0.000177043 0.00207474 1.15142e-16)
(-0.00141397 0.000517628 0)
(-0.00138971 0.000530625 -9.60333e-17)
(0.00127104 0.000557787 2.0474e-17)
(0.00136506 0.000409575 8.36644e-17)
(0.00139957 0.000500976 -1.59367e-16)
(-0.00140627 0.000559366 0)
(-0.00139172 0.00051811 0)
(-0.00138961 0.000545286 9.81686e-17)
(-0.00134967 0.000565017 1.67118e-16)
(0.00137606 0.000546226 1.1353e-16)
(-0.00141119 0.000535776 -1.19902e-16)
(-0.0014286 0.000440546 9.28699e-17)
(0.00128906 0.000694185 0)
(0.00129399 0.000588964 -2.25139e-17)
(0.00133658 0.000524209 0)
(0.00137038 0.000482887 0)
(0.00123838 0.000464394 -1.87985e-16)
(0.0012057 0.000565562 -1.03701e-16)
(0.00126052 0.000609719 2.49602e-21)
(0.00133593 0.000549958 1.90325e-16)
(-0.00136896 0.000655798 -1.22454e-16)
(0.00137795 0.000544977 -1.20821e-16)
(0.0013069 0.000644353 0)
(0.00133552 0.000443476 1.64695e-16)
(0.00134291 0.000515741 -1.94803e-16)
(-0.00129241 0.00053137 2.64235e-21)
(0.00127602 0.00048458 1.65963e-16)
(-0.000773316 0.000486525 1.15541e-16)
(-0.00142411 0.000432799 1.80231e-16)
(-0.000309483 0.00179409 0)
(0.000554251 0.000432255 5.24745e-17)
(-0.00144041 0.000476825 8.87645e-17)
(0.00143542 0.000557523 -1.12859e-16)
(0.00142543 0.000555262 2.11529e-16)
(-0.00126158 0.000727906 2.41275e-16)
(0.000928862 0.00151994 -1.96894e-16)
(0.00135874 0.000440306 -3.03617e-16)
(-8.69012e-07 0.00186499 1.78758e-16)
(-0.0013945 0.000524813 0)
(-0.00141497 0.00047479 -2.72256e-16)
(0.00128687 0.000538072 9.95083e-17)
(-0.00139015 0.000566935 -3.04098e-16)
(-0.00139227 0.000542337 9.66761e-17)
(-0.00142585 0.000448432 -1.87131e-16)
(-0.00136507 0.000562902 0)
(0.0013769 0.000550435 2.24125e-16)
(0.00131865 0.000494491 0)
(0.00133759 0.000521585 0)
(0.00142952 0.000617335 6.54056e-21)
(0.0014081 0.000588449 -2.43668e-16)
(-0.00142109 0.0004384 -1.82387e-16)
(-0.00139546 0.000538384 -1.83549e-16)
(-0.0013818 0.000560096 1.43948e-16)
(-0.00137483 0.000663448 -1.23705e-16)
(-0.00139646 0.000504648 -9.67478e-17)
(0.0013167 0.000528178 0)
(0.00132457 0.000538564 -1.99428e-16)
(0.00138698 0.00051982 0)
(0.00130782 0.000503243 9.67641e-17)
(0.0014058 0.000633415 1.28473e-16)
(-3.51436e-05 0.00132454 -9.13942e-17)
(0.00146556 0.000402438 2.88886e-16)
(-5.3944e-06 0.00186005 4.54405e-17)
(-0.00139357 0.000524869 -1.99512e-16)
(-0.000906818 0.000404388 1.00283e-16)
(0.00130949 0.000426142 -9.61413e-21)
(0.00145861 0.000502989 -2.48622e-16)
(-0.00139131 0.000542007 2.91593e-16)
(0.00141364 0.00052779 0)
(0.00128061 0.000862681 -1.77126e-16)
(0.00137619 0.000409758 -9.48478e-17)
(0.00135168 0.00049359 -1.78766e-16)
(-0.00140593 0.000457758 -9.12339e-17)
(-0.00138548 0.000575923 1.95446e-16)
(0.00135093 0.000533967 0)
(0.00145275 0.000453164 0)
(-0.000488496 0.000218752 -2.17177e-16)
(-0.0014733 0.000615253 1.19563e-16)
(-0.00142233 0.000442795 0)
(-0.00138908 0.000508966 0)
(0.00145037 0.000477543 0)
(-0.00138821 0.000536593 1.91316e-21)
(-0.00139982 0.000600993 9.36782e-17)
(-0.00142405 0.000466851 -9.37993e-17)
(0.00139558 0.000553354 3.97486e-21)
(-0.00140044 0.000527596 0)
(0.0012607 0.000530915 0)
(0.00128429 0.00166587 -1.16374e-17)
(-0.00148903 0.000623863 2.29076e-16)
(0.00140416 0.000507223 0)
(0.0012274 0.000618016 2.14589e-16)
(0.0013143 0.000555424 2.17939e-16)
(-0.001488 0.000608136 1.14318e-16)
(-0.000169578 0.00187536 -7.06431e-21)
(-0.00134476 0.000553984 1.75078e-16)
(-0.00140374 0.000492022 1.9195e-16)
(0.00128418 0.000493759 0)
(-0.00139283 0.000525305 3.00571e-16)
(-0.00138554 0.000643094 -9.52168e-17)
(0.00138046 0.000534693 0)
(-0.00138937 0.00054098 0)
(0.00117985 0.000509991 3.4357e-16)
(0.00135912 0.00060276 0)
(0.00134747 0.000491812 0)
(0.00140769 0.000674662 2.58469e-17)
(0.00136893 0.000486429 0)
(0.00138758 0.000582133 -3.67871e-16)
(-0.0013511 0.000638132 0)
(-0.0013455 0.00063052 -1.80867e-16)
(-0.00134496 0.00062882 2.70923e-16)
(-0.00132688 0.000617446 8.88774e-17)
(0.00189339 0.00109679 1.48757e-16)
(-0.000425552 0.00198556 0)
(0.00137371 0.000624889 2.13763e-16)
(-0.00140265 0.000507712 -1.9408e-16)
(0.00108431 0.000580185 -1.90308e-16)
(-0.00141122 0.000457432 0)
(0.00125067 0.000483511 -1.76631e-16)
(0.00135844 0.000477327 -2.98058e-18)
(-0.00138536 0.000538096 9.3258e-17)
(-0.000307956 0.002152 -1.77907e-16)
(-0.000676724 0.00186429 1.1184e-17)
(0.000921416 0.000483786 0)
(0.00138949 0.00059684 0)
(0.00149829 0.000533366 0)
(0.0013842 0.000581673 5.94494e-21)
(-0.0014003 0.000492953 0)
(0.00135302 0.00051243 0)
(-0.00136116 0.000624385 -1.40089e-16)
(-0.00134696 0.000615741 1.83784e-16)
(3.08876e-05 0.00186222 -1.84692e-16)
(-0.00131011 0.000499459 1.99298e-16)
(-0.00133946 0.000625306 -4.53592e-17)
(0.00138387 0.000575445 1.95364e-16)
(0.00145097 0.000506761 -6.15115e-17)
(-0.00138158 0.000537957 1.85469e-16)
(0.00141671 0.0006133 0)
(-0.00135114 0.000629134 0)
(-0.00139254 0.000526212 0)
(-0.00141027 0.000538052 -1.08726e-16)
(0.00134688 0.000484779 -1.93043e-16)
(0.00128586 0.000539368 3.75002e-21)
(-0.00138871 0.00054074 0)
(-0.00139369 0.000506515 9.83241e-17)
(-0.000856784 0.00170025 0)
(0.00117147 0.00070751 0)
(0.000207745 0.00205699 8.61745e-17)
(0.00130966 0.000526713 5.74627e-17)
(-0.00135949 0.000609338 0)
(-0.00135312 0.000620867 0)
(-0.00135254 0.000616634 1.88217e-16)
(-0.00135787 0.000614353 -1.86174e-16)
(-0.00140855 0.000465371 2.97769e-16)
(-0.000137659 0.000346654 5.13888e-17)
(-0.00142162 0.000546072 -5.90063e-17)
(-0.00133477 0.000616642 6.23701e-17)
(0.00135757 0.000535149 2.23735e-17)
(-0.00139793 0.000497168 -9.62584e-17)
(-0.000382527 0.00139406 -1.01156e-16)
(-0.00138219 0.000660803 1.89326e-16)
(-0.00140044 0.00050007 1.92816e-16)
(0.00161052 0.00107666 0)
(-0.000156202 0.001404 0)
(-0.00145632 0.000602572 6.10114e-21)
(0.00132171 0.000525945 2.04395e-16)
(0.00139484 0.000572525 -1.05649e-16)
(-0.0013492 0.000615568 1.81888e-16)
(0.00121057 0.000449753 -1.31317e-16)
(0.000239284 0.000162201 1.07918e-16)
(-0.00135366 0.000617079 -3.65588e-16)
(2.44443e-05 0.00184955 0)
(-0.00158814 0.000573781 -3.66788e-17)
(-0.00136312 0.000613607 -2.11762e-16)
(-0.0013585 0.000614487 1.9002e-16)
(-0.000481983 0.000243807 2.17218e-16)
(-0.00139239 0.000509782 0)
(0.00146582 0.000317255 1.23013e-16)
(-0.00135238 0.000613225 -9.37848e-17)
(-0.00138376 0.000537396 -1.00073e-16)
(0.00138884 0.000503709 0)
(-0.00135462 0.000615877 0)
(-0.00093819 0.00205325 1.37277e-16)
(-0.00143649 0.000485454 -1.83737e-16)
(0.00135019 0.000466283 0)
(0.00141007 0.000642421 2.37179e-16)
(0.00134963 0.000537754 1.23124e-17)
(-0.000282341 0.00150396 2.58441e-16)
(-0.00139354 0.000526796 0)
(0.0013129 0.000556799 1.98132e-16)
(0.00136278 0.000519607 -2.63562e-16)
(-0.00139522 0.000505429 1.94297e-16)
(0.001437 0.000680663 0)
(0.000229554 0.000158979 -1.10465e-16)
(-0.00150386 0.000628807 -2.40504e-22)
(-0.000249953 0.0019139 9.63407e-17)
(0.00135416 0.000507809 0)
(-0.00140584 0.000471771 -2.99177e-16)
(0.00125365 0.000712208 3.93346e-16)
(0.00123129 0.000719402 -9.12441e-17)
(0.001367 0.000535252 -1.3295e-17)
(0.0013694 0.000461664 -1.26247e-16)
(0.00136913 0.000540943 1.94437e-16)
(0.00138156 0.0005088 0)
(-0.00152897 0.000467102 1.43578e-16)
(-0.00144305 0.000470082 -1.87092e-16)
(-0.0013642 0.000604165 -7.47197e-19)
(0.00129618 0.000621511 0)
(0.00127011 0.000550177 2.14672e-16)
(0.000438584 0.000159432 2.31986e-16)
(-0.00138493 0.000516524 1.95534e-16)
(-0.0013507 0.000611936 2.07963e-16)
(-0.00138165 0.000623963 0)
(-0.000854186 0.00200423 1.96762e-16)
(-0.00139798 0.000508608 5.91326e-21)
(0.00129047 0.000479421 1.14694e-16)
(-0.00139104 0.000512473 0)
(-0.00135968 0.000612658 -1.18783e-17)
(-0.00135852 0.000616713 0)
(-0.00135769 0.000615691 -1.85912e-16)
(-0.00139916 0.000542026 0)
(-0.000186568 0.00205204 -1.19592e-16)
(0.000922819 0.000512636 -3.44559e-16)
(0.00135053 0.000679737 1.25597e-16)
(-0.00139492 0.000509578 9.79712e-17)
(0.00133259 0.000525984 0)
(0.00142433 0.000667174 -1.26566e-16)
(-0.000235129 0.00203057 -1.90454e-16)
(0.000838775 0.000282109 -2.23907e-16)
(0.0013504 0.000553312 0)
(0.00138485 0.000608034 0)
(0.00133983 0.000569874 -1.87616e-16)
(-0.00140365 0.000479247 0)
(-0.00138534 0.000528737 1.9657e-16)
(-0.000342963 0.00223479 -6.17606e-18)
(-0.00146937 0.000624967 -1.01491e-16)
(-0.00128787 0.000495219 6.10878e-17)
(0.00132539 0.000513563 3.89324e-16)
(-0.000988306 0.00304657 -1.46077e-16)
(0.00226739 0.000892736 -1.97877e-16)
(0.00128665 0.00057888 -2.12585e-16)
(-0.00137654 0.000532673 9.64307e-17)
(-0.0013773 0.000640382 -1.21774e-17)
(-0.00134759 0.000621281 -1.89495e-16)
(0.00134707 0.000513828 2.0979e-16)
(-0.00138129 0.000523206 0)
(-0.00139144 0.000513741 9.90851e-17)
(-0.00158618 0.000569242 1.50959e-16)
(-0.00139731 0.000660789 0)
(-0.00137704 0.000627057 0)
(0.00143229 0.000655804 -1.23284e-16)
(0.00127941 0.00049573 0)
(-0.00139035 0.000526686 0)
(0.00129663 0.000484058 0)
(-0.00136 0.000615587 1.18324e-17)
(-0.00137523 0.000609442 7.54738e-19)
(0.00125953 0.000422724 0)
(0.00136358 0.000514828 1.9289e-16)
(-2.54593e-05 0.00186168 0)
(0.00134692 0.000451545 0)
(-0.00139638 0.000512407 4.92539e-17)
(-0.0014046 0.00050307 -3.01485e-16)
(0.00014278 0.000827858 0)
(-0.00138161 0.000531136 -1.93419e-16)
(-0.00143744 0.0003208 9.23822e-17)
(-0.00144048 0.000565925 -4.29479e-21)
(-0.00148749 0.00050342 -2.43397e-16)
(-0.00158688 0.000557903 1.51161e-16)
(-0.00136205 0.000641068 0)
(-0.0014061 0.000486742 2.02116e-16)
(-0.00138046 0.000530368 1.00296e-16)
(0.00135776 0.000512125 0)
(-0.00136733 0.000474832 1.62546e-16)
(-0.00138584 0.000518977 -2.6874e-16)
(1.24415e-05 0.00180975 0)
(-0.0013543 0.000610392 -2.80438e-16)
(-0.00140075 0.000571563 0)
(-0.00139594 0.000519867 0)
(0.00138159 0.000510664 2.03118e-16)
(-0.00139085 0.000508976 1.01385e-16)
(0.00120988 0.000440521 2.14783e-16)
(0.00138071 0.000555124 -2.03932e-16)
(-0.00097855 0.000473111 0)
(-0.00147592 0.000496371 0)
(-0.00138231 0.000531453 0)
(0.0013536 0.000526144 -2.1271e-16)
(0.00136787 0.000581978 0)
(0.00136429 0.000520584 0)
(-0.0014816 0.000642732 -2.99364e-16)
(0.000191157 0.00183286 2.17986e-16)
(-0.00136848 0.000635213 1.9228e-16)
(0.00140218 0.000432114 -2.15589e-16)
(-1.90128e-05 0.000967975 -6.19434e-17)
(-0.00138989 0.000542001 0)
(-0.00138637 0.00058741 2.99756e-16)
(-0.00132897 0.000623987 -1.8034e-16)
(0.000134984 0.00141678 1.08287e-16)
(0.00143339 0.000299731 0)
(0.00148571 0.000391137 1.14708e-16)
(0.00130741 0.000555908 1.77802e-16)
(-0.000280682 0.000213216 2.10734e-16)
(-0.00138498 0.00051497 -9.03934e-17)
(0.00136568 0.00053989 0)
(0.000847712 0.000318562 0)
(0.0011657 0.000359769 3.86491e-16)
(-0.00138393 0.000532721 0)
(0.00143609 0.000467413 -1.07229e-16)
(-0.00147864 0.000388147 1.26094e-16)
(-0.00139308 0.000530509 9.58123e-17)
(0.00131949 0.000528928 -1.95168e-16)
(-0.0015584 0.000586741 -1.3598e-16)
(-0.00130029 0.000544342 1.84899e-16)
(-0.00151569 0.000697625 1.01008e-16)
(-0.00103496 0.000406053 -1.08943e-16)
(-0.0013964 0.000527309 0)
(-0.00139041 0.000528823 0)
(-8.67221e-05 0.000696509 0)
(-1.6736e-06 0.0018059 -2.50981e-16)
(-0.00148423 0.000523957 0)
(-0.0014038 0.000688558 -8.72306e-17)
(0.00134663 0.000522411 3.76165e-16)
(0.00129378 0.000548501 -1.11176e-16)
(0.00134747 0.000482873 3.7953e-16)
(0.00136464 0.000573708 -5.49156e-17)
(0.0013563 0.000515047 -5.54974e-21)
(-0.00137787 0.000555207 -4.91291e-17)
(-0.00138183 0.000537213 -9.63671e-17)
(-0.00011278 0.00213519 5.97391e-18)
(-0.00138661 0.000534178 -1.95297e-16)
(-0.00137757 0.000575973 -5.15033e-17)
(0.0012944 0.00056156 0)
(-0.0013897 0.000533526 -9.75872e-17)
(-0.00147221 0.000543909 -3.58922e-16)
(-0.00134922 0.000606795 -1.39395e-17)
(-0.00139693 0.000522484 0)
(-0.00140863 0.000458433 4.83498e-17)
(-0.00138958 0.000514521 -9.87671e-17)
(0.00147471 0.000649707 -2.08724e-16)
(-0.0013792 0.000546712 -9.94719e-17)
(0.000187173 0.00205278 6.96551e-18)
(0.00132323 0.000482394 2.44312e-17)
(-3.94472e-05 0.00202862 -1.9886e-16)
(-0.00153931 0.000629674 2.82352e-16)
(-0.00134195 0.000453332 -3.9853e-16)
(0.00135487 0.000523027 1.03054e-16)
(-0.00154178 0.000630164 1.25936e-16)
(0.000205395 0.00106095 8.11333e-17)
(-0.00137501 0.000544878 1.9798e-16)
(0.001316 0.000452336 1.76671e-16)
(-1.50801e-05 0.00199087 0)
(-3.78536e-05 0.0017747 -2.83926e-16)
(-0.00138014 0.000570275 -1.57228e-16)
(0.00133503 0.000455522 -5.19586e-17)
(-1.56267e-05 0.00198562 7.90274e-19)
(0.00162308 0.000645389 9.7671e-17)
(-0.00127835 0.000510788 2.95298e-16)
(-0.00139387 0.000529537 -5.09886e-17)
(-0.00140978 0.000502011 0)
(-0.00144736 0.0005327 2.29032e-16)
(0.00133776 0.000540331 -2.02296e-16)
(-0.00138211 0.00053855 -9.68015e-17)
(0.00133709 0.000527173 0)
(-3.2148e-06 0.00197464 -2.01873e-16)
(-0.00146417 0.000562948 1.20769e-16)
(0.00155449 0.00139478 -3.66327e-16)
(0.00137281 0.000522275 0)
(-8.83945e-06 0.00197498 0)
(0.00140956 0.000565624 5.95145e-21)
(5.7215e-06 0.00196934 -2.02111e-16)
(3.11564e-06 0.00197392 4.01903e-16)
(-0.00137791 0.000540635 4.98493e-17)
(-0.000122873 0.00203326 1.97708e-16)
(-5.28289e-06 0.00196778 0)
(-1.27552e-05 0.00197712 2.01156e-16)
(-0.0013793 0.000537729 0)
(0.00158584 0.000890045 0)
(6.33797e-06 0.00197195 0)
(-3.09036e-06 0.00197166 -2.01439e-16)
(-0.00137467 0.000563659 0)
(-6.98995e-06 0.00197316 4.05273e-16)
(-0.00139079 0.000526645 0)
(-2.92174e-06 0.0019729 -2.02419e-16)
(-0.00138049 0.000537699 -2.93183e-16)
(-3.51005e-06 0.0019665 0)
(-0.00136676 0.000566664 9.67028e-17)
(-0.0006216 0.00225746 -4.71367e-17)
(0.00144238 0.000642112 2.50257e-16)
(0.00146821 0.000552402 0)
(3.9516e-07 0.0019711 1.45287e-20)
(-7.71189e-06 0.00197423 -1.99389e-16)
(-0.0014014 0.000465649 -8.51749e-17)
(0.00132062 0.000591354 -2.05744e-16)
(0.00120078 0.000486642 0)
(0.00134774 0.000516861 3.10263e-16)
(-1.48043e-06 0.00197199 2.01999e-16)
(-0.00137497 0.00053994 0)
(-4.84948e-05 0.00199396 2.00563e-16)
(-1.3902e-06 0.00196755 0)
(-3.40634e-06 0.00197055 -2.0488e-16)
(-0.00138544 0.000539951 0)
(0.00135771 0.000575129 1.95266e-16)
(-0.00139001 0.000531693 2.68331e-21)
(5.17822e-07 0.00196699 2.02885e-16)
(0.00137693 0.00050438 -4.1935e-16)
(0.00020277 0.00117606 0)
(-7.09474e-06 0.00197405 0)
(0.00152802 0.000705944 1.46624e-16)
(0.00134429 0.000470429 0)
(-0.000154808 0.00211537 0)
(-0.00138824 0.000525595 -3.5229e-16)
(-5.29405e-05 0.00201979 0)
(-0.00138164 0.000537794 9.75572e-17)
(-0.00117201 0.00100053 -5.25375e-17)
(-0.0013753 0.000564082 2.01112e-16)
(4.83331e-07 0.00196815 -4.04624e-16)
(-0.00141288 0.000514658 5.41573e-17)
(-0.00136571 0.000566534 1.92964e-16)
(-2.42957e-06 0.00196966 0)
(-4.86691e-06 0.00196671 -1.98249e-16)
(0.00127941 0.000435878 0)
(6.17569e-07 0.00197097 -2.04206e-16)
(1.18433e-06 0.00196936 0)
(-9.23152e-05 0.00204791 2.01275e-16)
(6.58788e-06 0.00178221 -2.27204e-16)
(-0.00133488 0.000566817 1.17406e-16)
(-2.85663e-05 0.00199747 9.81729e-20)
(0.000980156 0.000287902 0)
(-0.00141563 0.000518897 7.99851e-17)
(-0.00133448 0.000572146 4.68854e-17)
(4.13341e-06 0.00196588 4.05014e-16)
(-7.83092e-06 0.00197318 2.01601e-16)
(-0.0014114 0.0005399 -4.65999e-16)
(1.24521e-06 0.00196887 2.02683e-16)
(0.00125143 0.000402717 6.73583e-21)
(-1.00689e-05 0.00196939 2.00601e-16)
(-0.00139437 0.000529704 0)
(-0.00137388 0.000551514 5.12179e-17)
(-1.08015e-06 0.00197 -1.45955e-20)
(0.00133931 0.00065876 2.10081e-16)
(-0.00138699 0.000540678 -1.02841e-16)
(-0.0013678 0.000563724 -8.98995e-17)
(-4.87232e-06 0.00197236 -2.01524e-16)
(0.00134748 0.000528206 3.51594e-18)
(-3.19596e-07 0.00197081 -1.45996e-20)
(-0.00139787 0.000528072 4.80864e-17)
(6.37772e-06 0.00196731 0)
(-0.00138994 0.000525434 0)
(-1.1441e-05 0.00197238 -2.01466e-16)
(9.94334e-07 0.00197021 2.02265e-16)
(0.00134648 0.000559238 -2.45279e-17)
(-0.00141761 0.000485107 2.1972e-16)
(-1.03604e-05 0.00196967 1.99771e-16)
(2.46818e-06 0.00196706 0)
(-0.00137755 0.000559162 0)
(-0.00137115 0.000564051 1.53402e-16)
(-0.00141501 0.000452089 0)
(-7.19014e-05 0.00121862 -1.08309e-16)
(-3.74697e-07 0.00197063 2.02709e-16)
(-0.00136793 0.000562213 -1.45372e-16)
(-0.00137981 0.000538452 0)
(-0.00137299 0.000522814 5.30126e-17)
(-1.84922e-05 0.00197645 1.97006e-16)
(1.17477e-07 0.00196777 -1.4673e-20)
(-0.00138269 0.000528663 -5.14126e-17)
(0.000801115 9.649e-05 -2.18993e-16)
(-1.75449e-05 0.00198077 -2.00425e-16)
(-5.61455e-06 0.00197284 2.02104e-16)
(2.80729e-06 0.00196792 2.02981e-16)
(-2.11734e-07 0.00197421 -2.00155e-16)
(0.00164375 0.000833264 -1.92047e-16)
(-1.16951e-05 0.0019697 -2.01108e-16)
(-0.00139259 0.000524873 0)
(-0.0013583 0.000498462 0)
(0.00130592 0.000502316 0)
(-3.02006e-06 0.00196762 -2.0357e-16)
(-0.00136609 0.000566051 2.48142e-16)
(0.00133557 0.000497042 -1.5715e-16)
(-0.00132203 0.000535626 2.71353e-16)
(-0.00138194 0.000536847 -1.96916e-16)
(-0.00138406 0.000534879 -1.01262e-16)
(-0.00149206 0.000702378 -1.00454e-16)
(-5.6818e-06 0.00196871 -4.05792e-16)
(5.39197e-06 0.00196774 8.46294e-20)
(-0.00139138 0.000573197 -5.80045e-17)
(-0.00138499 0.000555717 4.59958e-17)
(-0.00138453 0.000538196 -5.05266e-17)
(7.90719e-06 0.00197014 -2.02616e-16)
(1.68023e-06 0.00196771 4.10225e-16)
(-9.64654e-06 0.00196983 -2.02961e-16)
(1.68815e-06 0.00196981 -7.95366e-19)
(-0.00138085 0.000547654 4.91294e-17)
(-6.74563e-06 0.00196865 0)
(9.41411e-06 0.00196915 -2.03783e-16)
(6.4223e-06 0.00196703 2.0275e-16)
(8.11938e-06 0.00197025 3.50535e-20)
(-0.00138603 0.000521525 1.02069e-16)
(-1.11023e-05 0.00198076 0)
(-0.00138703 0.000527481 -2.00616e-16)
(-0.00141917 0.000513681 0)
(0.00135671 0.000519614 -2.22458e-16)
(-7.70714e-07 0.00196894 -1.57904e-18)
(0.00129902 0.000519513 1.97902e-16)
(1.24506e-06 0.00196909 -1.45334e-20)
(-0.000120358 0.00202077 0)
(-8.03029e-05 0.00199515 -1.99271e-16)
(-0.00138657 0.000529283 0)
(-0.00139796 0.000527437 -9.86559e-17)
(1.3473e-05 0.00196727 0)
(-0.00137566 0.00053325 -2.14073e-16)
(-0.00138288 0.000541921 -1.06354e-16)
(0.00134968 0.000537063 2.13741e-16)
(7.62907e-07 0.00196815 -2.03083e-16)
(-1.12557e-05 0.00196989 -2.03159e-16)
(-0.00138943 0.000552353 5.55536e-17)
(-2.13429e-06 0.0019693 -2.00307e-16)
(-0.00137028 0.000520538 3.11585e-16)
(-9.11744e-06 0.00196827 -2.0229e-16)
(2.81271e-06 0.00196937 -1.45603e-20)
(-0.00137382 0.000584488 -2.36559e-16)
(-1.23223e-05 0.0019695 2.00629e-16)
(0.00135927 0.000513988 0)
(-0.00138081 0.000540098 -5.0251e-17)
(-7.16706e-07 0.00196853 3.18891e-18)
(-0.0013897 0.000519931 1.00775e-16)
(-3.35882e-07 0.00196799 -1.60073e-18)
(-0.0013812 0.000530397 5.04604e-17)
(-0.0013062 0.000485843 0)
(5.18864e-06 0.00196941 -1.46323e-20)
(-0.00150672 0.000635395 3.00916e-16)
(1.19107e-06 0.00197041 2.0447e-16)
(0.00125274 0.000634268 -5.87774e-17)
(-0.00132305 0.000588838 1.95205e-16)
(-4.29952e-07 0.00196916 2.04615e-16)
(0.0010066 0.000396514 2.15026e-16)
(-2.57265e-06 0.00196922 2.0332e-16)
(1.5404e-06 0.0019693 3.1727e-18)
(0.00115376 0.000421673 2.27232e-16)
(0.00123706 0.00043442 -2.1254e-16)
(0.00140685 0.000556683 0)
(-0.00147733 0.000602641 0)
(-1.13407e-05 0.00196939 -1.59107e-18)
(0.00128189 0.000485717 2.79971e-16)
(-1.09745e-05 0.00196832 -1.57972e-18)
(-0.00138422 0.000535936 -9.82427e-17)
(0.00125893 0.000429938 0)
(1.03125e-05 0.00196854 -4.05554e-16)
(1.68721e-06 0.00196876 -4.0807e-16)
(-0.00137694 0.000555243 0)
(-0.00138583 0.000520564 0)
(1.16523e-06 0.00197029 -4.0552e-16)
(-3.93455e-05 0.00198905 0)
(-0.00137516 0.000568792 -1.9548e-16)
(-2.64484e-05 0.00198008 -4.00515e-16)
(-0.00125845 0.000455033 0)
(0.0014242 0.000454538 5.24848e-17)
(1.35885e-07 0.00196672 -1.6074e-18)
(4.48912e-06 0.00197089 2.04311e-16)
(0.00107717 0.000671321 -7.03677e-18)
(5.25744e-07 0.00196873 -2.04793e-16)
(-0.00139352 0.000513308 1.57438e-16)
(-0.0014704 0.000680294 1.38983e-16)
(-1.21909e-05 0.00196906 2.01868e-16)
(-0.00138945 0.000519461 1.45748e-16)
(-2.15204e-06 0.00196965 2.04814e-16)
(-1.13433e-05 0.00196856 -2.02606e-16)
(-1.27883e-05 0.00196878 -2.01908e-16)
(-0.00137162 0.000557882 0)
(-0.00138755 0.000521378 -4.98683e-17)
(-1.39099e-06 0.00196839 -7.98785e-19)
(1.1679e-05 0.00196917 0)
(-0.00136969 0.000556365 1.98689e-16)
(-0.00138149 0.000521434 0)
(1.78331e-06 0.00196848 -2.03402e-16)
(-9.53937e-06 0.00197511 3.16232e-18)
(0.00134737 0.000523464 -2.14735e-16)
(1.78479e-06 0.00196899 -4.10853e-16)
(-0.00148812 0.000584214 3.41576e-16)
(-7.26414e-07 0.00196889 0)
(-6.32571e-07 0.0019696 2.02761e-16)
(-3.81794e-07 0.00196911 0)
(-7.67412e-08 0.00196909 2.02821e-16)
(1.45078e-06 0.00196861 -2.02308e-16)
(0.0011534 0.000450371 1.21377e-16)
(5.25946e-07 0.00196825 2.0245e-16)
(9.10193e-07 0.00197263 -1.46574e-20)
(-2.00829e-08 0.00196886 2.04803e-16)
(-1.32668e-05 0.00196915 4.04648e-16)
(-0.00138789 0.00053037 0)
(-0.00138676 0.000534591 -5.25277e-17)
(-1.15486e-05 0.00196882 0)
(-2.63368e-07 0.00196897 0)
(-1.34095e-06 0.00196816 -2.06613e-16)
(1.16982e-05 0.00196975 2.03099e-16)
(9.67017e-06 0.00196984 2.03865e-16)
(-0.00138373 0.000538849 2.57697e-16)
(1.04208e-05 0.00196886 2.03296e-16)
(-7.56403e-07 0.00196948 -2.04794e-16)
(-1.8834e-06 0.00196903 0)
(-5.18547e-07 0.00196887 -1.47063e-20)
(-0.00138681 0.000534316 1.00376e-16)
(1.15811e-05 0.0019691 0)
(1.09383e-05 0.00196846 2.03437e-16)
(-4.6333e-06 0.0019727 -2.05258e-16)
(-0.00139254 0.000519319 0)
(-1.59861e-08 0.00196892 0)
(0.00136004 0.000523381 -2.13232e-16)
(-2.38139e-07 0.00197023 1.5988e-18)
(-1.91352e-07 0.00197068 -3.9854e-19)
(-9.45626e-06 0.00196725 -7.92071e-19)
(-1.28381e-05 0.00196857 1.46018e-20)
(-1.0347e-05 0.0019678 7.92718e-19)
(-0.00138509 0.000603111 -1.24096e-16)
(-1.23625e-05 0.00196764 2.03611e-16)
(6.58714e-06 0.00196856 0)
(-1.21191e-05 0.00196791 2.02164e-16)
(-1.22777e-05 0.00196829 -2.02509e-16)
(-1.29427e-05 0.00196911 -2.0345e-16)
(-0.00167278 0.00136845 -3.08464e-16)
(-0.000318825 0.000394269 -3.84299e-16)
(1.19355e-05 0.00196935 -2.03715e-16)
(-1.18384e-06 0.00196913 -2.03073e-16)
(1.38478e-07 0.00196957 -2.03027e-16)
(1.07247e-05 0.00196843 2.03499e-16)
(-0.0013938 0.000525774 -2.02474e-16)
(-1.3754e-05 0.00196815 2.02141e-16)
(-1.15281e-06 0.00196923 -2.02692e-16)
(-9.01154e-06 0.00197298 -4.03169e-16)
(-1.02765e-06 0.00196859 -1.6033e-18)
(1.27515e-05 0.00196853 2.0273e-16)
(0.00134946 0.000517574 2.13266e-16)
(-4.19793e-06 0.00196983 -2.0273e-16)
(7.73636e-07 0.00196887 -1.45902e-20)
(0.00143787 0.000593394 -2.63007e-16)
(-4.22273e-07 0.00196879 0)
(-8.76296e-07 0.00196885 0)
(-1.36899e-05 0.00196856 -4.06255e-16)
(-0.00138681 0.000532205 1.00717e-16)
(2.55819e-07 0.00196771 -4.00495e-19)
(-1.58751e-05 0.00196921 2.1228e-19)
(0.00135765 0.000506227 1.41756e-17)
(-1.45992e-05 0.00197015 2.03076e-16)
(1.44556e-05 0.00196929 2.03049e-16)
(1.32363e-05 0.00196896 -2.02902e-16)
(3.31262e-06 0.00196876 -2.03472e-16)
(-1.55194e-05 0.0019694 1.45949e-20)
(-0.00144114 0.000512353 -2.15475e-16)
(-0.00118258 0.000456773 2.65479e-16)
(-1.37929e-06 0.00196696 -1.46747e-20)
(-8.69353e-07 0.00196904 -2.02591e-16)
(-0.00137446 0.000558378 5.11239e-17)
(1.2503e-06 0.00196862 -1.47066e-20)
(-1.43135e-05 0.00196793 8.05154e-19)
(1.4373e-05 0.00196857 -4.06044e-16)
(6.56387e-06 0.00196672 2.03835e-16)
(1.22073e-05 0.00196818 -2.03832e-16)
(1.20063e-05 0.0019686 -2.03827e-16)
(1.4353e-05 0.00196883 2.03126e-16)
(1.1963e-05 0.0019683 1.9868e-19)
(1.4245e-05 0.00196888 0)
(0.00136002 0.000514249 0)
(-1.16015e-05 0.00196901 2.04489e-16)
(-9.36947e-07 0.00197107 0)
(2.59293e-06 0.0019703 2.03738e-16)
(1.42761e-05 0.00196882 0)
(1.42151e-05 0.00196899 2.03195e-16)
(1.44027e-05 0.00196867 -9.91918e-20)
(1.51716e-06 0.00197038 1.99365e-16)
(1.29369e-05 0.00196966 0)
(-3.70002e-06 0.00197083 0)
(-1.20477e-05 0.0019705 -2.0471e-16)
(-0.00138378 0.000534681 -2.47374e-21)
(1.26953e-05 0.00196876 0)
(-2.90796e-05 0.00200246 0)
(1.24771e-05 0.00196879 0)
(-0.00135252 0.000515941 1.57171e-16)
(9.87333e-07 0.00196924 -2.02843e-16)
(-8.96413e-06 0.00197304 2.04682e-16)
(1.30465e-05 0.00196994 -9.94053e-20)
(-0.00135639 0.0005671 5.56769e-17)
(-0.00137611 0.000559458 -5.08322e-17)
(1.14174e-05 0.00196958 -2.03821e-16)
(-3.41647e-06 0.00196577 0)
(-4.80849e-07 0.00197227 -2.03902e-16)
(1.15699e-05 0.00196972 1.46471e-20)
(1.43514e-05 0.00196857 -2.03661e-16)
(-1.40382e-06 0.00196435 4.05043e-16)
(0.0013112 0.00044759 -3.65597e-16)
(0.0013564 0.000525089 -4.30921e-16)
(-1.98855e-06 0.00196952 4.07253e-16)
(0.00133915 0.000527978 0)
(1.12974e-05 0.00196971 0)
(1.45794e-05 0.00196828 -3.96999e-19)
(-0.00141086 0.000558443 -1.84023e-16)
(-0.00138138 0.000565103 1.05906e-16)
(8.99526e-07 0.0019681 -1.00204e-19)
(1.14079e-05 0.00196988 2.03872e-16)
(1.2136e-06 0.00196888 -2.03131e-16)
(-0.00126295 0.00120718 1.02777e-16)
(1.08003e-05 0.00196966 7.96852e-19)
(-1.39876e-05 0.00196999 2.03303e-16)
(-1.14807e-06 0.00197155 2.04073e-16)
(-0.00157737 0.0008074 -2.01501e-16)
(1.11587e-05 0.00197028 0)
(-8.05723e-07 0.0019691 4.01577e-19)
(-3.01366e-06 0.00197094 -2.03106e-16)
(-0.00138773 0.000526162 0)
(0.00139884 0.000384692 3.85787e-16)
(-0.00136631 0.000568089 5.36682e-17)
(1.0673e-05 0.00196985 -7.96983e-19)
(1.49723e-06 0.00196952 -2.03831e-16)
(-1.24495e-05 0.00196772 -2.03658e-16)
(-0.00138124 0.000554763 3.04098e-16)
(1.07141e-05 0.00197052 -2.04091e-16)
(-1.63545e-05 0.00196846 7.93026e-19)
(8.58769e-07 0.00196806 2.00593e-19)
(1.32898e-05 0.0019685 0)
(-4.27321e-07 0.00197193 0)
(1.34666e-05 0.00196835 0)
(1.40421e-06 0.00196953 0)
(-0.00138348 0.000525927 -5.05809e-17)
(-1.46724e-05 0.00196775 0)
(-9.65717e-07 0.00196899 0)
(0.0014624 0.000683149 1.57511e-16)
(9.29492e-07 0.00196957 0)
(-7.96007e-05 0.00204995 0)
(-3.9129e-07 0.00197187 4.08012e-16)
(7.2198e-07 0.00196807 0)
(0.00134715 0.000495357 -4.81149e-17)
(0.00135571 0.000526447 0)
(0.00121646 0.000601565 1.05925e-16)
(0.00132943 0.000479965 -2.062e-16)
(1.54109e-06 0.00196968 -4.07227e-16)
(-0.00125094 0.000542614 0)
(6.11309e-07 0.00196961 -1.99183e-19)
(-0.00137411 0.000555888 -9.91588e-17)
(1.49626e-05 0.00196862 0)
(0.000671791 0.000768515 0)
(2.4185e-07 0.00196905 -4.02035e-19)
(1.14816e-06 0.00197405 -1.26935e-17)
(0.000507253 0.00120991 -7.0527e-18)
(1.32839e-05 0.00196744 0)
(1.59098e-06 0.00196898 0)
(-0.00138044 0.000543427 0)
(-6.33084e-07 0.001969 4.06413e-16)
(-5.61884e-07 0.00196948 0)
(0.00135259 0.000519009 3.89423e-21)
(0.000382628 0.00113579 0)
(-6.82777e-08 0.0019692 4.14448e-19)
(-1.65192e-07 0.00197019 -2.04147e-16)
(1.00822e-06 0.00196874 -2.03127e-16)
(8.51975e-07 0.00196818 -4.02708e-19)
(3.65103e-07 0.00196843 0)
(7.64937e-07 0.00197028 1.47227e-20)